 Entering Gaussian System, Link 0=/usr/local/gaussian-2009-B.01/g09/g09
 Initial command:
 /usr/local/gaussian-2009-B.01/g09/l1.exe /lustre/scratch/tmp/pbs.3067633.nova/Gau-20039.inp -scrdir=/lustre/scratch/tmp/pbs.3067633.nova/
 Entering Link 1 = /usr/local/gaussian-2009-B.01/g09/l1.exe PID=     20046.
  
 Copyright (c) 1988,1990,1992,1993,1995,1998,2003,2009,2010,
            Gaussian, Inc.  All Rights Reserved.
  
 This is part of the Gaussian(R) 09 program.  It is based on
 the Gaussian(R) 03 system (copyright 2003, Gaussian, Inc.),
 the Gaussian(R) 98 system (copyright 1998, Gaussian, Inc.),
 the Gaussian(R) 94 system (copyright 1995, Gaussian, Inc.),
 the Gaussian 92(TM) system (copyright 1992, Gaussian, Inc.),
 the Gaussian 90(TM) system (copyright 1990, Gaussian, Inc.),
 the Gaussian 88(TM) system (copyright 1988, Gaussian, Inc.),
 the Gaussian 86(TM) system (copyright 1986, Carnegie Mellon
 University), and the Gaussian 82(TM) system (copyright 1983,
 Carnegie Mellon University). Gaussian is a federally registered
 trademark of Gaussian, Inc.
  
 This software contains proprietary and confidential information,
 including trade secrets, belonging to Gaussian, Inc.
  
 This software is provided under written license and may be
 used, copied, transmitted, or stored only in accord with that
 written license.
  
 The following legend is applicable only to US Government
 contracts under FAR:
  
                    RESTRICTED RIGHTS LEGEND
  
 Use, reproduction and disclosure by the US Government is
 subject to restrictions as set forth in subparagraphs (a)
 and (c) of the Commercial Computer Software - Restricted
 Rights clause in FAR 52.227-19.
  
 Gaussian, Inc.
 340 Quinnipiac St., Bldg. 40, Wallingford CT 06492
  
  
 ---------------------------------------------------------------
 Warning -- This program may not be used in any manner that
 competes with the business of Gaussian, Inc. or will provide
 assistance to any competitor of Gaussian, Inc.  The licensee
 of this program is prohibited from giving any competitor of
 Gaussian, Inc. access to this program.  By using this program,
 the user acknowledges that Gaussian, Inc. is engaged in the
 business of creating and licensing software in the field of
 computational chemistry and represents and warrants to the
 licensee that it is not a competitor of Gaussian, Inc. and that
 it will not use this program in any manner prohibited above.
 ---------------------------------------------------------------
  

 Cite this work as:
 Gaussian 09, Revision B.01,
 M. J. Frisch, G. W. Trucks, H. B. Schlegel, G. E. Scuseria, 
 M. A. Robb, J. R. Cheeseman, G. Scalmani, V. Barone, B. Mennucci, 
 G. A. Petersson, H. Nakatsuji, M. Caricato, X. Li, H. P. Hratchian, 
 A. F. Izmaylov, J. Bloino, G. Zheng, J. L. Sonnenberg, M. Hada, 
 M. Ehara, K. Toyota, R. Fukuda, J. Hasegawa, M. Ishida, T. Nakajima, 
 Y. Honda, O. Kitao, H. Nakai, T. Vreven, J. A. Montgomery, Jr., 
 J. E. Peralta, F. Ogliaro, M. Bearpark, J. J. Heyd, E. Brothers, 
 K. N. Kudin, V. N. Staroverov, T. Keith, R. Kobayashi, J. Normand, 
 K. Raghavachari, A. Rendell, J. C. Burant, S. S. Iyengar, J. Tomasi, 
 M. Cossi, N. Rega, J. M. Millam, M. Klene, J. E. Knox, J. B. Cross, 
 V. Bakken, C. Adamo, J. Jaramillo, R. Gomperts, R. E. Stratmann, 
 O. Yazyev, A. J. Austin, R. Cammi, C. Pomelli, J. W. Ochterski, 
 R. L. Martin, K. Morokuma, V. G. Zakrzewski, G. A. Voth, 
 P. Salvador, J. J. Dannenberg, S. Dapprich, A. D. Daniels, 
 O. Farkas, J. B. Foresman, J. V. Ortiz, J. Cioslowski, 
 and D. J. Fox, Gaussian, Inc., Wallingford CT, 2010.
 
 ******************************************
 Gaussian 09:  EM64L-G09RevB.01 12-Aug-2010
                21-Oct-2012 
 ******************************************
 %nproc=1
 Will use up to    1 processors via shared memory.
 %mem=1600MB
 %chk=e1.cis-6-31Gd.chk
 Default route:  MAXDISK=100GB SCF=DIRECT
 ------------------------------------------------------
 #p CIS(NStates=4,Singlets)/6-31G(d) IOP(9/33=2) nosymm
 ------------------------------------------------------
 1/38=1/1;
 2/12=2,15=1,17=6,18=5,40=1/2;
 3/5=1,6=6,7=1,11=9,16=1,25=1,30=1/1,2,8,3;
 4//1;
 5/5=2,38=5/2;
 8/6=1,10=2,108=4/1,4;
 9/33=2,41=4,42=3,48=1/14;
 6/7=2,8=2,9=2,10=2/1;
 99/5=1,9=1/99;
 Leave Link    1 at Sun Oct 21 15:38:59 2012, MaxMem=  209715200 cpu:       0.1
 (Enter /usr/local/gaussian-2009-B.01/g09/l101.exe)
 ----------------------------------------------------------------------
 CIS/6-31G(d) calculations of the transition density matrix for ethylen
 e
 ----------------------------------------------------------------------
 Symbolic Z-matrix:
 Charge =  0 Multiplicity = 1
 C                    -0.03187  -0.00001   0.00131 
 H                    -0.05395  -0.10255   1.06914 
 C                     1.18832   0.       -0.69539 
 H                    -0.96272  -0.10004  -0.5234 
 H                     1.2095   -0.09922  -1.76369 
 H                     2.11924  -0.10269  -0.1715 
 C-Bq                 -0.03187   3.00001   0.00131 
 H-Bq                 -0.05395   3.10255   1.06914 
 C-Bq                  1.18832   3.       -0.69539 
 H-Bq                 -0.96272   3.10004  -0.5234 
 H-Bq                  1.2095    3.09922  -1.76369 
 H-Bq                  2.11924   3.10269  -0.1715 
 
 NAtoms=     12 NQM=     12 NQMF=      0 NMic=      0 NMicF=      0 NTot=     12.
                    Isotopes and Nuclear Properties:
 (Nuclear quadrupole moments (NQMom) in fm**2, nuclear magnetic moments (NMagM)
  in nuclear magnetons)

  Atom         1           2           3           4           5           6           7           8           9          10
 IAtWgt=          12           1          12           1           1           1          12           1          12           1
 AtmWgt=  12.0000000   1.0078250  12.0000000   1.0078250   1.0078250   1.0078250  12.0000000   1.0078250  12.0000000   1.0078250
 NucSpn=           0           1           0           1           1           1           0           1           0           1
 AtZEff=   0.0000000   0.0000000   0.0000000   0.0000000   0.0000000   0.0000000   0.0000000   0.0000000   0.0000000   0.0000000
 NQMom=    0.0000000   0.0000000   0.0000000   0.0000000   0.0000000   0.0000000   0.0000000   0.0000000   0.0000000   0.0000000
 NMagM=    0.0000000   2.7928460   0.0000000   2.7928460   2.7928460   2.7928460   0.0000000   2.7928460   0.0000000   2.7928460

  Atom        11          12
 IAtWgt=           1           1
 AtmWgt=   1.0078250   1.0078250
 NucSpn=           1           1
 AtZEff=   0.0000000   0.0000000
 NQMom=    0.0000000   0.0000000
 NMagM=    2.7928460   2.7928460
 Leave Link  101 at Sun Oct 21 15:38:59 2012, MaxMem=  209715200 cpu:       0.1
 (Enter /usr/local/gaussian-2009-B.01/g09/l202.exe)
                          Input orientation:                          
 ---------------------------------------------------------------------
 Center     Atomic      Atomic             Coordinates (Angstroms)
 Number     Number       Type             X           Y           Z
 ---------------------------------------------------------------------
      1          6           0       -0.031871   -0.000007    0.001312
      2          1           0       -0.053949   -0.102551    1.069139
      3          6           0        1.188324    0.000003   -0.695389
      4          1           0       -0.962724   -0.100044   -0.523396
      5          1           0        1.209504   -0.099215   -1.763690
      6          1           0        2.119240   -0.102685   -0.171502
      7          6        1000       -0.031871    3.000007    0.001312
      8          1        1000       -0.053949    3.102551    1.069139
      9          6        1000        1.188324    2.999997   -0.695389
     10          1        1000       -0.962724    3.100044   -0.523396
     11          1        1000        1.209504    3.099215   -1.763690
     12          1        1000        2.119240    3.102685   -0.171502
 ---------------------------------------------------------------------
                    Distance matrix (angstroms):
                    1          2          3          4          5
     1  C    0.000000
     2  H    1.072967   0.000000
     3  C    1.405087   2.160398   0.000000
     4  H    1.073226   1.833588   2.160231   0.000000
     5  H    2.160113   3.101813   1.073108   2.501380   0.000000
     6  H    2.160483   2.502387   1.073130   3.101989   1.833765
     7  C    3.000014   3.281251   3.312747   3.279043   3.776430
     8  H    3.281251   3.205102   3.779233   3.690346   4.457863
     9  C    3.312747   3.779233   2.999994   3.777148   3.278236
    10  H    3.279043   3.690346   3.777148   3.200088   4.061054
    11  H    3.776430   4.457863   3.278236   4.061054   3.198430
    12  H    3.779397   4.066384   3.281417   4.458677   3.689830
                    6          7          8          9         10
     6  H    0.000000
     7  C    3.779397   0.000000
     8  H    4.066384   1.072967   0.000000
     9  C    3.281417   1.405087   2.160398   0.000000
    10  H    4.458677   1.073226   1.833588   2.160231   0.000000
    11  H    3.689830   2.160113   3.101813   1.073108   2.501380
    12  H    3.205370   2.160483   2.502387   1.073130   3.101989
                   11         12
    11  H    0.000000
    12  H    1.833765   0.000000
 Symmetry turned off by external request.
 Stoichiometry    C4H8
 Framework group  CS[X(C4H8)]
 Deg. of freedom    15
 Full point group                 CS      NOp   2
 Rotational constants (GHZ):     11.7297137      3.7311963      3.0633191
 Leave Link  202 at Sun Oct 21 15:38:59 2012, MaxMem=  209715200 cpu:       0.0
 (Enter /usr/local/gaussian-2009-B.01/g09/l301.exe)
 Standard basis: 6-31G(d) (6D, 7F)
 Ernie: Thresh=  0.10000D-02 Tol=  0.10000D-05 Strict=F.
 Integral buffers will be    131072 words long.
 Raffenetti 1 integral format.
 Two-electron integral symmetry is turned off.
    76 basis functions,   144 primitive gaussians,    76 cartesian basis functions
     8 alpha electrons        8 beta electrons
       nuclear repulsion energy        32.6134885689 Hartrees.
 IExCor=    0 DFT=F Ex=HF Corr=None ExCW=0 ScaHFX=  1.000000
 ScaDFX=  1.000000  1.000000  1.000000  1.000000 ScalE2=  1.000000  1.000000
 IRadAn=      0 IRanWt=     -1 IRanGd=            0 ICorTp=0
 NAtoms=   12 NActive=   12 NUniq=   12 SFac= 1.00D+00 NAtFMM=   50 NAOKFM=F Big=F
 Leave Link  301 at Sun Oct 21 15:38:59 2012, MaxMem=  209715200 cpu:       0.1
 (Enter /usr/local/gaussian-2009-B.01/g09/l302.exe)
 NPDir=0 NMtPBC=     1 NCelOv=     1 NCel=       1 NClECP=     1 NCelD=      1
         NCelK=      1 NCelE2=     1 NClLst=     1 CellRange=     0.0.
 One-electron integrals computed using PRISM.
 NBasis=    76 RedAO= T  NBF=    76
 NBsUse=    76 1.00D-06 NBFU=    76
 Leave Link  302 at Sun Oct 21 15:38:59 2012, MaxMem=  209715200 cpu:       0.2
 (Enter /usr/local/gaussian-2009-B.01/g09/l308.exe)
 Leave Link  308 at Sun Oct 21 15:38:59 2012, MaxMem=  209715200 cpu:       0.0
 (Enter /usr/local/gaussian-2009-B.01/g09/l303.exe)
 DipDrv:  MaxL=1.
 Leave Link  303 at Sun Oct 21 15:38:59 2012, MaxMem=  209715200 cpu:       0.0
 (Enter /usr/local/gaussian-2009-B.01/g09/l401.exe)
 Harris functional with IExCor=  205 diagonalized for initial guess.
 ExpMin= 1.61D-01 ExpMax= 3.05D+03 ExpMxC= 4.57D+02 IAcc=1 IRadAn=         1 AccDes= 0.00D+00
 HarFok:  IExCor=  205 AccDes= 0.00D+00 IRadAn=         1 IDoV= 1
 ScaDFX=  1.000000  1.000000  1.000000  1.000000
 FoFCou: FMM=F IPFlag=           0 FMFlag=      100000 FMFlg1=           0
         NFxFlg=           0 DoJE=T BraDBF=F KetDBF=T FulRan=T
         Omega=  0.000000  0.000000  1.000000  0.000000  0.000000 ICntrl=     500 IOpCl=  0
         NMat0=    1 NMatS0=    1 NMatT0=    0 NMatD0=    1 NMtDS0=    0 NMtDT0=    0
         I1Cent=           4 NGrid=           0.
 Symmetry not used in FoFCou.
 Harris En= -78.1992602680061    
 Leave Link  401 at Sun Oct 21 15:39:00 2012, MaxMem=  209715200 cpu:       0.4
 (Enter /usr/local/gaussian-2009-B.01/g09/l502.exe)
 Closed shell SCF:
 Requested convergence on RMS density matrix=1.00D-08 within 128 cycles.
 Requested convergence on MAX density matrix=1.00D-06.
 Requested convergence on             energy=1.00D-06.
 No special actions if energy rises.
 Using DIIS extrapolation, IDIIS=  1040.
 Two-electron integral symmetry not used.
 Keep R1 ints in memory in canonical form, NReq=5138625.
 IEnd=       36410 IEndB=       36410 NGot=   209715200 MDV=   205419054
 LenX=   205419054 LenY=   205412837
 Symmetry not used in FoFDir.
 MinBra= 0 MaxBra= 2 Meth= 1.
 IRaf=       0 NMat=   1 IRICut=       1 DoRegI=T DoRafI=F ISym2E= 0 JSym2E=0.

 Cycle   1  Pass 1  IDiag  1:
 E= -77.9051836286412    
 DIIS: error= 3.80D-02 at cycle   1 NSaved=   1.
 NSaved= 1 IEnMin= 1 EnMin= -77.9051836286412     IErMin= 1 ErrMin= 3.80D-02
 ErrMax= 3.80D-02 EMaxC= 1.00D-01 BMatC= 1.46D-01 BMatP= 1.46D-01
 IDIUse=3 WtCom= 6.20D-01 WtEn= 3.80D-01
 Coeff-Com:  0.100D+01
 Coeff-En:   0.100D+01
 Coeff:      0.100D+01
 Gap=     0.526 Goal=   None    Shift=    0.000
 GapD=    0.526 DampG=2.000 DampE=0.500 DampFc=1.0000 IDamp=-1.
 RMSDP=4.75D-03 MaxDP=8.84D-02              OVMax= 1.38D-01

 Cycle   2  Pass 1  IDiag  1:
 E= -78.0090249818763     Delta-E=       -0.103841353235 Rises=F Damp=F
 DIIS: error= 9.42D-03 at cycle   2 NSaved=   2.
 NSaved= 2 IEnMin= 2 EnMin= -78.0090249818763     IErMin= 2 ErrMin= 9.42D-03
 ErrMax= 9.42D-03 EMaxC= 1.00D-01 BMatC= 1.43D-02 BMatP= 1.46D-01
 IDIUse=3 WtCom= 9.06D-01 WtEn= 9.42D-02
 Coeff-Com:  0.171D+00 0.829D+00
 Coeff-En:   0.000D+00 0.100D+01
 Coeff:      0.155D+00 0.845D+00
 Gap=     0.525 Goal=   None    Shift=    0.000
 RMSDP=1.40D-03 MaxDP=2.44D-02 DE=-1.04D-01 OVMax= 3.45D-02

 Cycle   3  Pass 1  IDiag  1:
 E= -78.0215627677815     Delta-E=       -0.012537785905 Rises=F Damp=F
 DIIS: error= 2.28D-03 at cycle   3 NSaved=   3.
 NSaved= 3 IEnMin= 3 EnMin= -78.0215627677815     IErMin= 3 ErrMin= 2.28D-03
 ErrMax= 2.28D-03 EMaxC= 1.00D-01 BMatC= 3.17D-04 BMatP= 1.43D-02
 IDIUse=3 WtCom= 9.77D-01 WtEn= 2.28D-02
 Coeff-Com: -0.227D-01 0.805D-01 0.942D+00
 Coeff-En:   0.000D+00 0.000D+00 0.100D+01
 Coeff:     -0.221D-01 0.786D-01 0.944D+00
 Gap=     0.505 Goal=   None    Shift=    0.000
 RMSDP=2.02D-04 MaxDP=3.58D-03 DE=-1.25D-02 OVMax= 6.77D-03

 Cycle   4  Pass 1  IDiag  1:
 E= -78.0219411405082     Delta-E=       -0.000378372727 Rises=F Damp=F
 DIIS: error= 2.18D-04 at cycle   4 NSaved=   4.
 NSaved= 4 IEnMin= 4 EnMin= -78.0219411405082     IErMin= 4 ErrMin= 2.18D-04
 ErrMax= 2.18D-04 EMaxC= 1.00D-01 BMatC= 3.21D-06 BMatP= 3.17D-04
 IDIUse=3 WtCom= 9.98D-01 WtEn= 2.18D-03
 Coeff-Com:  0.425D-02-0.255D-01-0.197D+00 0.122D+01
 Coeff-En:   0.000D+00 0.000D+00 0.000D+00 0.100D+01
 Coeff:      0.424D-02-0.254D-01-0.197D+00 0.122D+01
 Gap=     0.505 Goal=   None    Shift=    0.000
 RMSDP=3.77D-05 MaxDP=4.40D-04 DE=-3.78D-04 OVMax= 9.30D-04

 Cycle   5  Pass 1  IDiag  1:
 E= -78.0219470364660     Delta-E=       -0.000005895958 Rises=F Damp=F
 DIIS: error= 2.71D-05 at cycle   5 NSaved=   5.
 NSaved= 5 IEnMin= 5 EnMin= -78.0219470364660     IErMin= 5 ErrMin= 2.71D-05
 ErrMax= 2.71D-05 EMaxC= 1.00D-01 BMatC= 6.54D-08 BMatP= 3.21D-06
 IDIUse=1 WtCom= 1.00D+00 WtEn= 0.00D+00
 Coeff-Com:  0.153D-03-0.266D-03-0.552D-02-0.125D+00 0.113D+01
 Coeff:      0.153D-03-0.266D-03-0.552D-02-0.125D+00 0.113D+01
 Gap=     0.505 Goal=   None    Shift=    0.000
 RMSDP=7.31D-06 MaxDP=8.26D-05 DE=-5.90D-06 OVMax= 1.66D-04

 Cycle   6  Pass 1  IDiag  1:
 E= -78.0219471865963     Delta-E=       -0.000000150130 Rises=F Damp=F
 DIIS: error= 3.75D-06 at cycle   6 NSaved=   6.
 NSaved= 6 IEnMin= 6 EnMin= -78.0219471865963     IErMin= 6 ErrMin= 3.75D-06
 ErrMax= 3.75D-06 EMaxC= 1.00D-01 BMatC= 1.09D-09 BMatP= 6.54D-08
 IDIUse=1 WtCom= 1.00D+00 WtEn= 0.00D+00
 Coeff-Com: -0.972D-04 0.488D-03 0.459D-02 0.781D-02-0.261D+00 0.125D+01
 Coeff:     -0.972D-04 0.488D-03 0.459D-02 0.781D-02-0.261D+00 0.125D+01
 Gap=     0.505 Goal=   None    Shift=    0.000
 RMSDP=1.09D-06 MaxDP=1.88D-05 DE=-1.50D-07 OVMax= 2.59D-05

 Cycle   7  Pass 1  IDiag  1:
 E= -78.0219471890639     Delta-E=       -0.000000002468 Rises=F Damp=F
 DIIS: error= 4.00D-07 at cycle   7 NSaved=   7.
 NSaved= 7 IEnMin= 7 EnMin= -78.0219471890639     IErMin= 7 ErrMin= 4.00D-07
 ErrMax= 4.00D-07 EMaxC= 1.00D-01 BMatC= 1.27D-11 BMatP= 1.09D-09
 IDIUse=1 WtCom= 1.00D+00 WtEn= 0.00D+00
 Coeff-Com:  0.995D-05-0.560D-04-0.485D-03 0.577D-03 0.183D-01-0.142D+00
 Coeff-Com:  0.112D+01
 Coeff:      0.995D-05-0.560D-04-0.485D-03 0.577D-03 0.183D-01-0.142D+00
 Coeff:      0.112D+01
 Gap=     0.505 Goal=   None    Shift=    0.000
 RMSDP=9.28D-08 MaxDP=1.31D-06 DE=-2.47D-09 OVMax= 3.14D-06

 Cycle   8  Pass 1  IDiag  1:
 E= -78.0219471890911     Delta-E=       -0.000000000027 Rises=F Damp=F
 DIIS: error= 1.36D-07 at cycle   8 NSaved=   8.
 NSaved= 8 IEnMin= 8 EnMin= -78.0219471890911     IErMin= 8 ErrMin= 1.36D-07
 ErrMax= 1.36D-07 EMaxC= 1.00D-01 BMatC= 2.36D-12 BMatP= 1.27D-11
 IDIUse=1 WtCom= 1.00D+00 WtEn= 0.00D+00
 Coeff-Com:  0.806D-05-0.428D-04-0.386D-03-0.286D-03 0.198D-01-0.110D+00
 Coeff-Com:  0.316D+00 0.775D+00
 Coeff:      0.806D-05-0.428D-04-0.386D-03-0.286D-03 0.198D-01-0.110D+00
 Coeff:      0.316D+00 0.775D+00
 Gap=     0.505 Goal=   None    Shift=    0.000
 RMSDP=2.53D-08 MaxDP=3.90D-07 DE=-2.72D-11 OVMax= 9.05D-07

 Cycle   9  Pass 1  IDiag  1:
 E= -78.0219471890937     Delta-E=       -0.000000000003 Rises=F Damp=F
 DIIS: error= 2.65D-08 at cycle   9 NSaved=   9.
 NSaved= 9 IEnMin= 9 EnMin= -78.0219471890937     IErMin= 9 ErrMin= 2.65D-08
 ErrMax= 2.65D-08 EMaxC= 1.00D-01 BMatC= 1.02D-13 BMatP= 2.36D-12
 IDIUse=1 WtCom= 1.00D+00 WtEn= 0.00D+00
 Coeff-Com: -0.893D-06 0.469D-05 0.428D-04-0.923D-04-0.114D-02 0.102D-01
 Coeff-Com: -0.913D-01 0.285D-01 0.105D+01
 Coeff:     -0.893D-06 0.469D-05 0.428D-04-0.923D-04-0.114D-02 0.102D-01
 Coeff:     -0.913D-01 0.285D-01 0.105D+01
 Gap=     0.505 Goal=   None    Shift=    0.000
 RMSDP=9.69D-09 MaxDP=1.01D-07 DE=-2.59D-12 OVMax= 2.83D-07

 SCF Done:  E(RHF) =  -78.0219471891     A.U. after    9 cycles
             Convg  =    0.9688D-08             -V/T =  2.0036
 KE= 7.774152325814D+01 PE=-2.462573070564D+02 EE= 5.788034804023D+01
 Leave Link  502 at Sun Oct 21 15:39:01 2012, MaxMem=  209715200 cpu:       0.9
 (Enter /usr/local/gaussian-2009-B.01/g09/l801.exe)
 ExpMin= 1.61D-01 ExpMax= 3.05D+03 ExpMxC= 4.57D+02 IAcc=1 IRadAn=         1 AccDes= 0.00D+00
 HarFok:  IExCor=  205 AccDes= 0.00D+00 IRadAn=         1 IDoV=-2
 ScaDFX=  1.000000  1.000000  1.000000  1.000000
 Largest valence mixing into a core orbital is  2.26D-04
 Largest core mixing into a valence orbital is  4.35D-05
 Range of M.O.s used for correlation:     3    76
 NBasis=    76 NAE=     8 NBE=     8 NFC=     2 NFV=     0
 NROrb=     74 NOA=     6 NOB=     6 NVA=    68 NVB=    68
 Leave Link  801 at Sun Oct 21 15:39:01 2012, MaxMem=  209715200 cpu:       0.1
 (Enter /usr/local/gaussian-2009-B.01/g09/l804.exe)
 Closed-shell transformation, MDV=   209715200 ITran=3 ISComp=1.
 Semi-Direct transformation.
 ModeAB=           2 MOrb=             6 LenV=     209446997
 LASXX=       206874 LTotXX=      206874 LenRXX=      206874
 LTotAB=      224739 MaxLAS=     1299144 LenRXY=     1299144
 NonZer=     1345320 LenScr=     2689024 LnRSAI=           0
 LnScr1=           0 LExtra=      454677 Total=      4649719
 MaxDsk= 13421772800 SrtSym=           F ITran=            3
 DoSDTr:  NPSUse=  1
 JobTyp=0 Pass  1:  I=   1 to   6.
 (rs|ai) integrals will be sorted in core.
 Complete sort for first half transformation.
 First half transformation complete.
 Complete sort for second half transformation.
 Second half transformation complete.
 Spin components of T(2) and E(2):
     alpha-alpha T2 =       0.1057047198D-01 E2=     -0.2904268813D-01
     alpha-beta  T2 =       0.7573732780D-01 E2=     -0.1998783693D+00
     beta-beta   T2 =       0.1057047198D-01 E2=     -0.2904268813D-01
 ANorm=    0.1047319565D+01
 E2 =    -0.2579637456D+00 EUMP2 =    -0.78279910934666D+02
 Leave Link  804 at Sun Oct 21 15:39:03 2012, MaxMem=  209715200 cpu:       1.8
 (Enter /usr/local/gaussian-2009-B.01/g09/l914.exe)
 RHF ground state
 MDV=   209715200 DFT=F DoStab=F Mixed=F DoRPA=F DoScal=F NonHer=F
 Making orbital integer symmetry assigments:
 Form IVOs with IExCor=    0 ScaHFX=  1.000000 ScaDFX=  1.000000  1.000000  1.000000  1.000000
 FoFJK:  IHMeth= 1 ICntrl=     0 DoSepK=F KAlg= 1 I1Cent= 0 FoldK=F
 FoFCou: FMM=F IPFlag=           0 FMFlag=      100000 FMFlg1=           0
         NFxFlg=           0 DoJE=F BraDBF=F KetDBF=F FulRan=T
         Omega=  0.000000  0.000000  1.000000  0.000000  0.000000 ICntrl=       0 IOpCl=  1
         NMat0=    1 NMatS0=    1 NMatT0=    0 NMatD0=    1 NMtDS0=    0 NMtDT0=    0
         I1Cent=           0 NGrid=           0.
 Symmetry not used in FoFCou.
 FoFCou:  KetSym=F NOpSet=  1 NOpAb=1 NOp=  1.
 FoFCou:  CnvScl= 1.00D+00 Thresh= 1.00D-10
 PrismS was handed   209655832 working-precision words and   524 shell-pairs
 FoFCou: LinMIO=F DoNuc=F BraDBF=F KetDBF=F HaveP=T PDBF=F HaveZ=F HaveW=F
         NIJTC =       6 NIJTAt=       0 NIJTCD=       0 NIJTT =       6
         IJTBeg=       1 IJTEnd=       6 KLTBeg=       1 KLTEnd=       6
         IPTBeg=       1 IPTEnd=       6 IPTBCv=       1 IPTECv=       6
         IZTBeg=       1 IZTEnd=       6 IZTBCv=       1 IZTECv=       6
         IWTBeg=       7 IWTEnd=       6 IWTBCv=       7 IWTECv=       6
         INTBeg=       1 INTEnd=       0 IFTBCv=       1 IFTECv=       6
 NCel replicated for PrismC:     1
 CoulSu:  IncDef=  1024 NBBP=         137550 NTPThr=   100 NPartT=    1 Incr=        1024 LDynOK=F.
 CoulSu:  NPrtUS=   1 ThrOK=F IAlg=1 NPAlg=1 LenDen=           0.
 Enter PrismC: JobTyp=20 DoJE=F Cont=F.
 PrismC:  IPart=     0 DynPar=F LinDyn=F Incr=        1024 UseFst=F UseS4=T.
 PrismC was handed   209655261 working-precision words and   524 shell-pairs
 IPart=  0 NShTot=      120353 NShNF=      120353 NShFF=           0 NBatch=         731 AvBLen=       164.6
 CoulSu:  NxtVal=           1025.
 FoFCou EC=  24.0600082204     ENF=  24.0600082204    
 IMat=  1 1/2 <PG(P)>=          50.825682390602
 IMat=  1 EOne=-0.157983547445D+03 ETwo= 0.508256823906D+02 Energy=-0.107157865055D+03
 MkCIGS:  K=  1 S=1 I=   6 A=    1.
 MkCIGS:  K=  2 S=1 I=   5 A=    1.
 MkCIGS:  K=  3 S=1 I=   6 A=    2.
 MkCIGS:  K=  4 S=1 I=   4 A=    1.
 MkCIGS:  K=  5 S=1 I=   6 A=    3.
 MkCIGS:  K=  6 S=1 I=   6 A=    4.
 MkCIGS:  K=  7 S=1 I=   6 A=    5.
 MkCIGS:  K=  8 S=1 I=   3 A=    1.
 MkCIGS:  K=  9 S=1 I=   6 A=    6.
 MkCIGS:  K= 10 S=1 I=   6 A=    7.
 MkCIGS:  K= 11 S=1 I=   6 A=    8.
 MkCIGS:  K= 12 S=1 I=   5 A=    2.
 MkCIGS:  K= 13 S=1 I=   6 A=    9.
 MkCIGS:  K= 14 S=1 I=   5 A=    3.
 MkCIGS:  K= 15 S=1 I=   5 A=    4.
 MkCIGS:  K= 16 S=1 I=   5 A=    5.
    16 initial guesses have been made.
 Convergence on wavefunction:    0.001000000000000
 Davidson Disk Diagonalization:  ConvIn= 1.00D-03 SkipCon=T Conv= 1.00D-03.
 Max sub-space:   200 roots to seek:    16 dimension of matrix:    816
 OrtVec:  Test1= 1.00D+00 Test2= 1.00D-06
 OrtVec:  NIn=     16 NOld=      0 NBNew=     16 NBOld=     16
 OrtVc1:  Ph=1 IOff=     0 IPass= 1 DotMx1= 0.00D+00
 OrtVc1:  Ph=2 IOff=     0 IPass= 1 DotMx1= 0.00D+00
 OrtVc1:  IOff=     0 IS=     1 I=     1 K1=T IndO=     1 NNew1=     1 Dot= 1.00D+00 DotN= 1.00D+00 ElMax1= 6.78D-01 ElMax1N= 6.78D-01
 OrtVc1:  Ph=3 IOff=     0 NNewB=     0 IAdd=     2 IPass= 1 DotMx2= 0.00D+00
 OrtVc1:  IOff=     0 IS=     1 I=     2 K1=T IndO=     2 NNew1=     2 Dot= 1.00D+00 DotN= 1.00D+00 ElMax1= 6.78D-01 ElMax1N= 6.78D-01
 OrtVc1:  Ph=3 IOff=     0 NNewB=     0 IAdd=     3 IPass= 1 DotMx2= 4.87D-18
 OrtVc1:  IOff=     0 IS=     1 I=     3 K1=T IndO=     3 NNew1=     3 Dot= 1.00D+00 DotN= 1.00D+00 ElMax1= 5.41D-01 ElMax1N= 5.41D-01
 OrtVc1:  Ph=3 IOff=     0 NNewB=     0 IAdd=     4 IPass= 1 DotMx2= 0.00D+00
 OrtVc1:  IOff=     0 IS=     1 I=     4 K1=T IndO=     4 NNew1=     4 Dot= 1.00D+00 DotN= 1.00D+00 ElMax1= 6.78D-01 ElMax1N= 6.78D-01
 OrtVc1:  Ph=3 IOff=     0 NNewB=     0 IAdd=     5 IPass= 1 DotMx2= 4.36D-16
 OrtVc1:  IOff=     0 IS=     1 I=     5 K1=T IndO=     5 NNew1=     5 Dot= 1.00D+00 DotN= 1.00D+00 ElMax1= 5.53D-01 ElMax1N= 5.53D-01
 OrtVc1:  Ph=3 IOff=     0 NNewB=     0 IAdd=     6 IPass= 1 DotMx2= 5.62D-16
 OrtVc1:  IOff=     0 IS=     1 I=     6 K1=T IndO=     6 NNew1=     6 Dot= 1.00D+00 DotN= 1.00D+00 ElMax1= 5.30D-01 ElMax1N= 5.30D-01
 OrtVc1:  Ph=3 IOff=     0 NNewB=     0 IAdd=     7 IPass= 1 DotMx2= 3.00D-16
 OrtVc1:  IOff=     0 IS=     1 I=     7 K1=T IndO=     7 NNew1=     7 Dot= 1.00D+00 DotN= 1.00D+00 ElMax1= 6.08D-01 ElMax1N= 6.08D-01
 OrtVc1:  Ph=3 IOff=     0 NNewB=     0 IAdd=     8 IPass= 1 DotMx2= 0.00D+00
 OrtVc1:  IOff=     0 IS=     1 I=     8 K1=T IndO=     8 NNew1=     8 Dot= 1.00D+00 DotN= 1.00D+00 ElMax1= 6.78D-01 ElMax1N= 6.78D-01
 OrtVc1:  Ph=3 IOff=     0 NNewB=     0 IAdd=     9 IPass= 1 DotMx2= 3.36D-16
 OrtVc1:  IOff=     0 IS=     1 I=     9 K1=T IndO=     9 NNew1=     9 Dot= 1.00D+00 DotN= 1.00D+00 ElMax1= 5.92D-01 ElMax1N= 5.92D-01
 OrtVc1:  Ph=3 IOff=     0 NNewB=     0 IAdd=    10 IPass= 1 DotMx2= 3.38D-16
 OrtVc1:  IOff=     0 IS=     1 I=    10 K1=T IndO=    10 NNew1=    10 Dot= 1.00D+00 DotN= 1.00D+00 ElMax1= 6.09D-01 ElMax1N= 6.09D-01
 OrtVc1:  Ph=3 IOff=     0 NNewB=     0 IAdd=    11 IPass= 1 DotMx2= 2.72D-16
 OrtVc1:  IOff=     0 IS=     1 I=    11 K1=T IndO=    11 NNew1=    11 Dot= 1.00D+00 DotN= 1.00D+00 ElMax1= 6.74D-01 ElMax1N= 6.74D-01
 OrtVc1:  Ph=3 IOff=     0 NNewB=     0 IAdd=    12 IPass= 1 DotMx2= 4.87D-18
 OrtVc1:  IOff=     0 IS=     1 I=    12 K1=T IndO=    12 NNew1=    12 Dot= 1.00D+00 DotN= 1.00D+00 ElMax1= 5.41D-01 ElMax1N= 5.41D-01
 OrtVc1:  Ph=3 IOff=     0 NNewB=     0 IAdd=    13 IPass= 1 DotMx2= 2.22D-16
 OrtVc1:  IOff=     0 IS=     1 I=    13 K1=T IndO=    13 NNew1=    13 Dot= 1.00D+00 DotN= 1.00D+00 ElMax1= 5.56D-01 ElMax1N= 5.56D-01
 OrtVc1:  Ph=3 IOff=     0 NNewB=     0 IAdd=    14 IPass= 1 DotMx2= 4.36D-16
 OrtVc1:  IOff=     0 IS=     1 I=    14 K1=T IndO=    14 NNew1=    14 Dot= 1.00D+00 DotN= 1.00D+00 ElMax1= 5.53D-01 ElMax1N= 5.53D-01
 OrtVc1:  Ph=3 IOff=     0 NNewB=     0 IAdd=    15 IPass= 1 DotMx2= 5.62D-16
 OrtVc1:  IOff=     0 IS=     1 I=    15 K1=T IndO=    15 NNew1=    15 Dot= 1.00D+00 DotN= 1.00D+00 ElMax1= 5.30D-01 ElMax1N= 5.30D-01
 OrtVc1:  Ph=3 IOff=     0 NNewB=     0 IAdd=    16 IPass= 1 DotMx2= 3.00D-16
 OrtVc1:  IOff=     0 IS=     1 I=    16 K1=T IndO=    16 NNew1=    16 Dot= 1.00D+00 DotN= 1.00D+00 ElMax1= 6.08D-01 ElMax1N= 6.08D-01
 Iteration     1 Dimension    16 NMult    16
 OrtVec:  Test1= 1.00D+00 Test2= 1.00D-06
 OrtVec:  NIn=     16 NOld=      0 NBNew=     16 NBOld=     16
 OrtVc1:  Ph=1 IOff=     0 IPass= 1 DotMx1= 0.00D+00
 OrtVc1:  Ph=2 IOff=     0 IPass= 1 DotMx1= 0.00D+00
 OrtVc1:  IOff=     0 IS=     1 I=     1 K1=T IndO=     1 NNew1=     1 Dot= 1.00D+00 DotN= 1.00D+00 ElMax1= 6.56D-01 ElMax1N= 6.56D-01
 OrtVc1:  Ph=3 IOff=     0 NNewB=     0 IAdd=     2 IPass= 1 DotMx2= 2.50D-06
 OrtVc1:  Ph=3 IOff=     0 NNewB=     0 IAdd=     2 IPass= 2 DotMx2= 3.61D-19
 OrtVc1:  IOff=     0 IS=     1 I=     2 K1=T IndO=     2 NNew1=     2 Dot= 1.00D+00 DotN= 1.00D+00 ElMax1= 5.91D-01 ElMax1N= 5.91D-01
 OrtVc1:  Ph=3 IOff=     0 NNewB=     0 IAdd=     3 IPass= 1 DotMx2= 2.44D-05
 OrtVc1:  Ph=3 IOff=     0 NNewB=     0 IAdd=     3 IPass= 2 DotMx2= 2.06D-19
 OrtVc1:  IOff=     0 IS=     1 I=     3 K1=T IndO=     3 NNew1=     3 Dot= 1.00D+00 DotN= 1.00D+00 ElMax1= 6.34D-01 ElMax1N= 6.34D-01
 OrtVc1:  Ph=3 IOff=     0 NNewB=     0 IAdd=     4 IPass= 1 DotMx2= 4.03D-05
 OrtVc1:  Ph=3 IOff=     0 NNewB=     0 IAdd=     4 IPass= 2 DotMx2= 1.56D-16
 OrtVc1:  IOff=     0 IS=     1 I=     4 K1=T IndO=     4 NNew1=     4 Dot= 1.00D+00 DotN= 1.00D+00 ElMax1= 6.21D-01 ElMax1N= 6.21D-01
 OrtVc1:  Ph=3 IOff=     0 NNewB=     0 IAdd=     5 IPass= 1 DotMx2= 2.95D-05
 OrtVc1:  Ph=3 IOff=     0 NNewB=     0 IAdd=     5 IPass= 2 DotMx2= 1.15D-16
 OrtVc1:  IOff=     0 IS=     1 I=     5 K1=T IndO=     5 NNew1=     5 Dot= 1.00D+00 DotN= 1.00D+00 ElMax1= 5.09D-01 ElMax1N= 5.09D-01
 OrtVc1:  Ph=3 IOff=     0 NNewB=     0 IAdd=     6 IPass= 1 DotMx2= 1.24D-04
 OrtVc1:  Ph=3 IOff=     0 NNewB=     0 IAdd=     6 IPass= 2 DotMx2= 5.48D-17
 OrtVc1:  IOff=     0 IS=     1 I=     6 K1=T IndO=     6 NNew1=     6 Dot= 1.00D+00 DotN= 1.00D+00 ElMax1= 5.96D-01 ElMax1N= 5.96D-01
 OrtVc1:  Ph=3 IOff=     0 NNewB=     0 IAdd=     7 IPass= 1 DotMx2= 3.78D-05
 OrtVc1:  Ph=3 IOff=     0 NNewB=     0 IAdd=     7 IPass= 2 DotMx2= 2.13D-17
 OrtVc1:  IOff=     0 IS=     1 I=     7 K1=T IndO=     7 NNew1=     7 Dot= 1.00D+00 DotN= 1.00D+00 ElMax1= 5.37D-01 ElMax1N= 5.37D-01
 OrtVc1:  Ph=3 IOff=     0 NNewB=     0 IAdd=     8 IPass= 1 DotMx2= 6.23D-05
 OrtVc1:  Ph=3 IOff=     0 NNewB=     0 IAdd=     8 IPass= 2 DotMx2= 7.51D-20
 OrtVc1:  IOff=     0 IS=     1 I=     8 K1=T IndO=     8 NNew1=     8 Dot= 1.00D+00 DotN= 1.00D+00 ElMax1= 6.55D-01 ElMax1N= 6.55D-01
 OrtVc1:  Ph=3 IOff=     0 NNewB=     0 IAdd=     9 IPass= 1 DotMx2= 3.51D-05
 OrtVc1:  Ph=3 IOff=     0 NNewB=     0 IAdd=     9 IPass= 2 DotMx2= 4.39D-17
 OrtVc1:  IOff=     0 IS=     1 I=     9 K1=T IndO=     9 NNew1=     9 Dot= 1.00D+00 DotN= 1.00D+00 ElMax1= 5.41D-01 ElMax1N= 5.41D-01
 OrtVc1:  Ph=3 IOff=     0 NNewB=     0 IAdd=    10 IPass= 1 DotMx2= 8.60D-05
 OrtVc1:  Ph=3 IOff=     0 NNewB=     0 IAdd=    10 IPass= 2 DotMx2= 6.07D-17
 OrtVc1:  IOff=     0 IS=     1 I=    10 K1=T IndO=    10 NNew1=    10 Dot= 1.00D+00 DotN= 1.00D+00 ElMax1= 6.00D-01 ElMax1N= 6.00D-01
 OrtVc1:  Ph=3 IOff=     0 NNewB=     0 IAdd=    11 IPass= 1 DotMx2= 1.81D-04
 OrtVc1:  Ph=3 IOff=     0 NNewB=     0 IAdd=    11 IPass= 2 DotMx2= 3.24D-17
 OrtVc1:  IOff=     0 IS=     1 I=    11 K1=T IndO=    11 NNew1=    11 Dot= 1.00D+00 DotN= 1.00D+00 ElMax1= 5.50D-01 ElMax1N= 5.50D-01
 OrtVc1:  Ph=3 IOff=     0 NNewB=     0 IAdd=    12 IPass= 1 DotMx2= 1.11D-04
 OrtVc1:  Ph=3 IOff=     0 NNewB=     0 IAdd=    12 IPass= 2 DotMx2= 4.94D-17
 OrtVc1:  IOff=     0 IS=     1 I=    12 K1=T IndO=    12 NNew1=    12 Dot= 1.00D+00 DotN= 1.00D+00 ElMax1= 5.71D-01 ElMax1N= 5.71D-01
 OrtVc1:  Ph=3 IOff=     0 NNewB=     0 IAdd=    13 IPass= 1 DotMx2= 1.15D-04
 OrtVc1:  Ph=3 IOff=     0 NNewB=     0 IAdd=    13 IPass= 2 DotMx2= 3.69D-17
 OrtVc1:  IOff=     0 IS=     1 I=    13 K1=T IndO=    13 NNew1=    13 Dot= 1.00D+00 DotN= 1.00D+00 ElMax1= 6.81D-01 ElMax1N= 6.81D-01
 OrtVc1:  Ph=3 IOff=     0 NNewB=     0 IAdd=    14 IPass= 1 DotMx2= 6.25D-05
 OrtVc1:  Ph=3 IOff=     0 NNewB=     0 IAdd=    14 IPass= 2 DotMx2= 6.30D-17
 OrtVc1:  IOff=     0 IS=     1 I=    14 K1=T IndO=    14 NNew1=    14 Dot= 1.00D+00 DotN= 1.00D+00 ElMax1= 5.89D-01 ElMax1N= 5.89D-01
 OrtVc1:  Ph=3 IOff=     0 NNewB=     0 IAdd=    15 IPass= 1 DotMx2= 1.09D-04
 OrtVc1:  Ph=3 IOff=     0 NNewB=     0 IAdd=    15 IPass= 2 DotMx2= 2.13D-17
 OrtVc1:  IOff=     0 IS=     1 I=    15 K1=T IndO=    15 NNew1=    15 Dot= 1.00D+00 DotN= 1.00D+00 ElMax1= 5.51D-01 ElMax1N= 5.51D-01
 OrtVc1:  Ph=3 IOff=     0 NNewB=     0 IAdd=    16 IPass= 1 DotMx2= 1.34D-04
 OrtVc1:  Ph=3 IOff=     0 NNewB=     0 IAdd=    16 IPass= 2 DotMx2= 6.41D-17
 OrtVc1:  IOff=     0 IS=     1 I=    16 K1=T IndO=    16 NNew1=    16 Dot= 1.00D+00 DotN= 1.00D+00 ElMax1= 6.07D-01 ElMax1N= 6.07D-01
 New state      2 was old state      3
 New state      3 was old state      2
 Excitation Energies [eV] at current iteration:
 Root      1 :     9.274153006623793
 Root      2 :     9.353738052910128
 Root      3 :     9.621768321827007
 Root      4 :     9.875829815991423
 Root      5 :    10.142751946394030
 Root      6 :    10.229185409452120
 Root      7 :    11.093856500762730
 Root      8 :    12.420003433483130
 Root      9 :    12.773273335263450
 Root     10 :    13.175032528424910
 Root     11 :    13.407541338179500
 Root     12 :    14.011548416758140
 Root     13 :    14.248068480883370
 Root     14 :    14.748431148412690
 Root     15 :    15.721820302097240
 Root     16 :    15.787857825271790
 OrtVec:  Test1= 1.00D+00 Test2= 1.00D-06
 OrtVec:  NIn=     16 NOld=     16 NBNew=     16 NBOld=     32
 OrtVc1:  Ph=1 IOff=     0 IPass= 1 DotMx1= 1.32D-01
 OrtVc1:  Ph=1 IOff=     0 IPass= 2 DotMx1= 6.27D-17
 OrtVc1:  Ph=2 IOff=     0 IPass= 1 DotMx1= 0.00D+00
 OrtVc1:  IOff=     0 IS=     1 I=     1 K1=T IndO=     1 NNew1=     1 Dot= 5.10D-02 DotN= 5.10D-02 ElMax1= 7.10D-02 ElMax1N= 7.10D-02
 OrtVc1:  Ph=3 IOff=     0 NNewB=     0 IAdd=     2 IPass= 1 DotMx2= 2.26D-04
 OrtVc1:  Ph=3 IOff=     0 NNewB=     0 IAdd=     2 IPass= 2 DotMx2= 1.98D-19
 OrtVc1:  IOff=     0 IS=     1 I=     2 K1=T IndO=     2 NNew1=     2 Dot= 4.19D-03 DotN= 4.19D-03 ElMax1= 1.59D-02 ElMax1N= 1.59D-02
 OrtVc1:  Ph=3 IOff=     0 NNewB=     0 IAdd=     3 IPass= 1 DotMx2= 4.82D-04
 OrtVc1:  Ph=3 IOff=     0 NNewB=     0 IAdd=     3 IPass= 2 DotMx2= 4.40D-19
 OrtVc1:  IOff=     0 IS=     1 I=     3 K1=T IndO=     3 NNew1=     3 Dot= 3.84D-03 DotN= 3.84D-03 ElMax1= 2.02D-02 ElMax1N= 2.02D-02
 OrtVc1:  Ph=3 IOff=     0 NNewB=     0 IAdd=     4 IPass= 1 DotMx2= 8.85D-02
 OrtVc1:  Ph=3 IOff=     0 NNewB=     0 IAdd=     4 IPass= 2 DotMx2= 4.56D-17
 OrtVc1:  IOff=     0 IS=     1 I=     4 K1=T IndO=     4 NNew1=     4 Dot= 6.25D-03 DotN= 6.25D-03 ElMax1= 4.36D-02 ElMax1N= 4.36D-02
 OrtVc1:  Ph=3 IOff=     0 NNewB=     0 IAdd=     5 IPass= 1 DotMx2= 2.27D-02
 OrtVc1:  Ph=3 IOff=     0 NNewB=     0 IAdd=     5 IPass= 2 DotMx2= 9.20D-19
 OrtVc1:  IOff=     0 IS=     1 I=     5 K1=T IndO=     5 NNew1=     5 Dot= 3.66D-04 DotN= 3.66D-04 ElMax1= 9.94D-03 ElMax1N= 9.94D-03
 OrtVc1:  Ph=3 IOff=     0 NNewB=     0 IAdd=     6 IPass= 1 DotMx2= 5.71D-02
 OrtVc1:  Ph=3 IOff=     0 NNewB=     0 IAdd=     6 IPass= 2 DotMx2= 4.71D-17
 OrtVc1:  IOff=     0 IS=     1 I=     6 K1=T IndO=     6 NNew1=     6 Dot= 3.38D-03 DotN= 3.38D-03 ElMax1= 2.36D-02 ElMax1N= 2.36D-02
 OrtVc1:  Ph=3 IOff=     0 NNewB=     0 IAdd=     7 IPass= 1 DotMx2= 2.18D-02
 OrtVc1:  Ph=3 IOff=     0 NNewB=     0 IAdd=     7 IPass= 2 DotMx2= 2.13D-17
 OrtVc1:  IOff=     0 IS=     1 I=     7 K1=T IndO=     7 NNew1=     7 Dot= 1.16D-03 DotN= 1.16D-03 ElMax1= 1.19D-02 ElMax1N= 1.19D-02
 OrtVc1:  Ph=3 IOff=     0 NNewB=     0 IAdd=     8 IPass= 1 DotMx2= 1.75D-04
 OrtVc1:  Ph=3 IOff=     0 NNewB=     0 IAdd=     8 IPass= 2 DotMx2= 1.05D-19
 OrtVc1:  IOff=     0 IS=     1 I=     8 K1=T IndO=     8 NNew1=     8 Dot= 3.33D-03 DotN= 3.33D-03 ElMax1= 2.08D-02 ElMax1N= 2.08D-02
 OrtVc1:  Ph=3 IOff=     0 NNewB=     0 IAdd=     9 IPass= 1 DotMx2= 1.34D-01
 OrtVc1:  Ph=3 IOff=     0 NNewB=     0 IAdd=     9 IPass= 2 DotMx2= 2.17D-16
 OrtVc1:  IOff=     0 IS=     1 I=     9 K1=T IndO=     9 NNew1=     9 Dot= 1.50D-03 DotN= 1.50D-03 ElMax1= 1.57D-02 ElMax1N= 1.57D-02
 OrtVc1:  Ph=3 IOff=     0 NNewB=     0 IAdd=    10 IPass= 1 DotMx2= 8.98D-03
 OrtVc1:  Ph=3 IOff=     0 NNewB=     0 IAdd=    10 IPass= 2 DotMx2= 6.63D-19
 OrtVc1:  IOff=     0 IS=     1 I=    10 K1=T IndO=    10 NNew1=    10 Dot= 8.62D-04 DotN= 8.62D-04 ElMax1= 1.42D-02 ElMax1N= 1.42D-02
 OrtVc1:  Ph=3 IOff=     0 NNewB=     0 IAdd=    11 IPass= 1 DotMx2= 1.67D-03
 OrtVc1:  Ph=3 IOff=     0 NNewB=     0 IAdd=    11 IPass= 2 DotMx2= 1.73D-18
 OrtVc1:  IOff=     0 IS=     1 I=    11 K1=T IndO=    11 NNew1=    11 Dot= 6.43D-04 DotN= 6.43D-04 ElMax1= 1.15D-02 ElMax1N= 1.15D-02
 OrtVc1:  Ph=3 IOff=     0 NNewB=     0 IAdd=    12 IPass= 1 DotMx2= 2.11D-02
 OrtVc1:  Ph=3 IOff=     0 NNewB=     0 IAdd=    12 IPass= 2 DotMx2= 3.93D-17
 OrtVc1:  IOff=     0 IS=     1 I=    12 K1=T IndO=    12 NNew1=    12 Dot= 1.02D-02 DotN= 1.02D-02 ElMax1= 4.69D-02 ElMax1N= 4.69D-02
 OrtVc1:  Ph=3 IOff=     0 NNewB=     0 IAdd=    13 IPass= 1 DotMx2= 2.59D-02
 OrtVc1:  Ph=3 IOff=     0 NNewB=     0 IAdd=    13 IPass= 2 DotMx2= 1.37D-17
 OrtVc1:  IOff=     0 IS=     1 I=    13 K1=T IndO=    13 NNew1=    13 Dot= 1.13D-03 DotN= 1.13D-03 ElMax1= 1.37D-02 ElMax1N= 1.37D-02
 OrtVc1:  Ph=3 IOff=     0 NNewB=     0 IAdd=    14 IPass= 1 DotMx2= 9.14D-02
 OrtVc1:  Ph=3 IOff=     0 NNewB=     0 IAdd=    14 IPass= 2 DotMx2= 1.42D-16
 OrtVc1:  IOff=     0 IS=     1 I=    14 K1=T IndO=    14 NNew1=    14 Dot= 4.65D-03 DotN= 4.65D-03 ElMax1= 2.54D-02 ElMax1N= 2.54D-02
 OrtVc1:  Ph=3 IOff=     0 NNewB=     0 IAdd=    15 IPass= 1 DotMx2= 2.78D-02
 OrtVc1:  Ph=3 IOff=     0 NNewB=     0 IAdd=    15 IPass= 2 DotMx2= 1.71D-17
 OrtVc1:  IOff=     0 IS=     1 I=    15 K1=T IndO=    15 NNew1=    15 Dot= 1.63D-02 DotN= 1.63D-02 ElMax1= 5.65D-02 ElMax1N= 5.65D-02
 OrtVc1:  Ph=3 IOff=     0 NNewB=     0 IAdd=    16 IPass= 1 DotMx2= 1.82D-02
 OrtVc1:  Ph=3 IOff=     0 NNewB=     0 IAdd=    16 IPass= 2 DotMx2= 1.71D-17
 OrtVc1:  IOff=     0 IS=     1 I=    16 K1=T IndO=    16 NNew1=    16 Dot= 2.45D-02 DotN= 2.45D-02 ElMax1= 8.28D-02 ElMax1N= 8.28D-02
 Iteration     2 Dimension    32 NMult    32
 OrtVec:  Test1= 1.00D+00 Test2= 1.00D-06
 OrtVec:  NIn=     32 NOld=      0 NBNew=     32 NBOld=     32
 OrtVc1:  Ph=1 IOff=     0 IPass= 1 DotMx1= 0.00D+00
 OrtVc1:  Ph=2 IOff=     0 IPass= 1 DotMx1= 0.00D+00
 OrtVc1:  IOff=     0 IS=     1 I=     1 K1=T IndO=     1 NNew1=     1 Dot= 1.00D+00 DotN= 1.00D+00 ElMax1= 6.79D-01 ElMax1N= 6.79D-01
 OrtVc1:  Ph=3 IOff=     0 NNewB=     0 IAdd=     2 IPass= 1 DotMx2= 2.86D-05
 OrtVc1:  Ph=3 IOff=     0 NNewB=     0 IAdd=     2 IPass= 2 DotMx2= 1.83D-22
 OrtVc1:  IOff=     0 IS=     1 I=     2 K1=T IndO=     2 NNew1=     2 Dot= 1.00D+00 DotN= 1.00D+00 ElMax1= 6.21D-01 ElMax1N= 6.21D-01
 OrtVc1:  Ph=3 IOff=     0 NNewB=     0 IAdd=     3 IPass= 1 DotMx2= 2.24D-05
 OrtVc1:  Ph=3 IOff=     0 NNewB=     0 IAdd=     3 IPass= 2 DotMx2= 2.31D-19
 OrtVc1:  IOff=     0 IS=     1 I=     3 K1=T IndO=     3 NNew1=     3 Dot= 1.00D+00 DotN= 1.00D+00 ElMax1= 6.57D-01 ElMax1N= 6.57D-01
 OrtVc1:  Ph=3 IOff=     0 NNewB=     0 IAdd=     4 IPass= 1 DotMx2= 2.80D-05
 OrtVc1:  Ph=3 IOff=     0 NNewB=     0 IAdd=     4 IPass= 2 DotMx2= 1.68D-17
 OrtVc1:  IOff=     0 IS=     1 I=     4 K1=T IndO=     4 NNew1=     4 Dot= 1.00D+00 DotN= 1.00D+00 ElMax1= 6.68D-01 ElMax1N= 6.68D-01
 OrtVc1:  Ph=3 IOff=     0 NNewB=     0 IAdd=     5 IPass= 1 DotMx2= 3.86D-05
 OrtVc1:  Ph=3 IOff=     0 NNewB=     0 IAdd=     5 IPass= 2 DotMx2= 1.24D-16
 OrtVc1:  IOff=     0 IS=     1 I=     5 K1=T IndO=     5 NNew1=     5 Dot= 1.00D+00 DotN= 1.00D+00 ElMax1= 6.26D-01 ElMax1N= 6.26D-01
 OrtVc1:  Ph=3 IOff=     0 NNewB=     0 IAdd=     6 IPass= 1 DotMx2= 1.48D-04
 OrtVc1:  Ph=3 IOff=     0 NNewB=     0 IAdd=     6 IPass= 2 DotMx2= 2.26D-16
 OrtVc1:  IOff=     0 IS=     1 I=     6 K1=T IndO=     6 NNew1=     6 Dot= 1.00D+00 DotN= 1.00D+00 ElMax1= 5.25D-01 ElMax1N= 5.25D-01
 OrtVc1:  Ph=3 IOff=     0 NNewB=     0 IAdd=     7 IPass= 1 DotMx2= 5.48D-05
 OrtVc1:  Ph=3 IOff=     0 NNewB=     0 IAdd=     7 IPass= 2 DotMx2= 6.37D-17
 OrtVc1:  IOff=     0 IS=     1 I=     7 K1=T IndO=     7 NNew1=     7 Dot= 1.00D+00 DotN= 1.00D+00 ElMax1= 5.41D-01 ElMax1N= 5.41D-01
 OrtVc1:  Ph=3 IOff=     0 NNewB=     0 IAdd=     8 IPass= 1 DotMx2= 5.22D-05
 OrtVc1:  Ph=3 IOff=     0 NNewB=     0 IAdd=     8 IPass= 2 DotMx2= 3.87D-19
 OrtVc1:  IOff=     0 IS=     1 I=     8 K1=T IndO=     8 NNew1=     8 Dot= 1.00D+00 DotN= 1.00D+00 ElMax1= 6.66D-01 ElMax1N= 6.66D-01
 OrtVc1:  Ph=3 IOff=     0 NNewB=     0 IAdd=     9 IPass= 1 DotMx2= 7.30D-05
 OrtVc1:  Ph=3 IOff=     0 NNewB=     0 IAdd=     9 IPass= 2 DotMx2= 1.22D-16
 OrtVc1:  IOff=     0 IS=     1 I=     9 K1=T IndO=     9 NNew1=     9 Dot= 1.00D+00 DotN= 1.00D+00 ElMax1= 5.36D-01 ElMax1N= 5.36D-01
 OrtVc1:  Ph=3 IOff=     0 NNewB=     0 IAdd=    10 IPass= 1 DotMx2= 9.67D-05
 OrtVc1:  Ph=3 IOff=     0 NNewB=     0 IAdd=    10 IPass= 2 DotMx2= 3.68D-18
 OrtVc1:  IOff=     0 IS=     1 I=    10 K1=T IndO=    10 NNew1=    10 Dot= 1.00D+00 DotN= 1.00D+00 ElMax1= 5.95D-01 ElMax1N= 5.95D-01
 OrtVc1:  Ph=3 IOff=     0 NNewB=     0 IAdd=    11 IPass= 1 DotMx2= 1.22D-04
 OrtVc1:  Ph=3 IOff=     0 NNewB=     0 IAdd=    11 IPass= 2 DotMx2= 1.18D-17
 OrtVc1:  IOff=     0 IS=     1 I=    11 K1=T IndO=    11 NNew1=    11 Dot= 1.00D+00 DotN= 1.00D+00 ElMax1= 5.49D-01 ElMax1N= 5.49D-01
 OrtVc1:  Ph=3 IOff=     0 NNewB=     0 IAdd=    12 IPass= 1 DotMx2= 1.09D-04
 OrtVc1:  Ph=3 IOff=     0 NNewB=     0 IAdd=    12 IPass= 2 DotMx2= 1.68D-16
 OrtVc1:  IOff=     0 IS=     1 I=    12 K1=T IndO=    12 NNew1=    12 Dot= 1.00D+00 DotN= 1.00D+00 ElMax1= 5.33D-01 ElMax1N= 5.33D-01
 OrtVc1:  Ph=3 IOff=     0 NNewB=     0 IAdd=    13 IPass= 1 DotMx2= 1.16D-04
 OrtVc1:  Ph=3 IOff=     0 NNewB=     0 IAdd=    13 IPass= 2 DotMx2= 1.41D-17
 OrtVc1:  IOff=     0 IS=     1 I=    13 K1=T IndO=    13 NNew1=    13 Dot= 1.00D+00 DotN= 1.00D+00 ElMax1= 6.90D-01 ElMax1N= 6.90D-01
 OrtVc1:  Ph=3 IOff=     0 NNewB=     0 IAdd=    14 IPass= 1 DotMx2= 1.08D-04
 OrtVc1:  Ph=3 IOff=     0 NNewB=     0 IAdd=    14 IPass= 2 DotMx2= 6.25D-17
 OrtVc1:  IOff=     0 IS=     1 I=    14 K1=T IndO=    14 NNew1=    14 Dot= 1.00D+00 DotN= 1.00D+00 ElMax1= 5.46D-01 ElMax1N= 5.46D-01
 OrtVc1:  Ph=3 IOff=     0 NNewB=     0 IAdd=    15 IPass= 1 DotMx2= 1.93D-04
 OrtVc1:  Ph=3 IOff=     0 NNewB=     0 IAdd=    15 IPass= 2 DotMx2= 1.92D-17
 OrtVc1:  IOff=     0 IS=     1 I=    15 K1=T IndO=    15 NNew1=    15 Dot= 1.00D+00 DotN= 1.00D+00 ElMax1= 5.52D-01 ElMax1N= 5.52D-01
 OrtVc1:  Ph=3 IOff=     0 NNewB=     0 IAdd=    16 IPass= 1 DotMx2= 1.30D-04
 OrtVc1:  Ph=3 IOff=     0 NNewB=     0 IAdd=    16 IPass= 2 DotMx2= 2.71D-17
 OrtVc1:  IOff=     0 IS=     1 I=    16 K1=T IndO=    16 NNew1=    16 Dot= 1.00D+00 DotN= 1.00D+00 ElMax1= 5.34D-01 ElMax1N= 5.34D-01
 OrtVc1:  Ph=3 IOff=     0 NNewB=     0 IAdd=    17 IPass= 1 DotMx2= 1.49D-04
 OrtVc1:  Ph=3 IOff=     0 NNewB=     0 IAdd=    17 IPass= 2 DotMx2= 1.72D-16
 OrtVc1:  IOff=     0 IS=     1 I=    17 K1=T IndO=    17 NNew1=    17 Dot= 1.00D+00 DotN= 1.00D+00 ElMax1= 5.25D-01 ElMax1N= 5.25D-01
 OrtVc1:  Ph=3 IOff=     0 NNewB=     0 IAdd=    18 IPass= 1 DotMx2= 1.66D-04
 OrtVc1:  Ph=3 IOff=     0 NNewB=     0 IAdd=    18 IPass= 2 DotMx2= 5.22D-17
 OrtVc1:  IOff=     0 IS=     1 I=    18 K1=T IndO=    18 NNew1=    18 Dot= 1.00D+00 DotN= 1.00D+00 ElMax1= 4.60D-01 ElMax1N= 4.60D-01
 OrtVc1:  Ph=3 IOff=     0 NNewB=     0 IAdd=    19 IPass= 1 DotMx2= 8.19D-05
 OrtVc1:  Ph=3 IOff=     0 NNewB=     0 IAdd=    19 IPass= 2 DotMx2= 1.13D-16
 OrtVc1:  IOff=     0 IS=     1 I=    19 K1=T IndO=    19 NNew1=    19 Dot= 1.00D+00 DotN= 1.00D+00 ElMax1= 3.65D-01 ElMax1N= 3.65D-01
 OrtVc1:  Ph=3 IOff=     0 NNewB=     0 IAdd=    20 IPass= 1 DotMx2= 1.25D-04
 OrtVc1:  Ph=3 IOff=     0 NNewB=     0 IAdd=    20 IPass= 2 DotMx2= 7.87D-17
 OrtVc1:  IOff=     0 IS=     1 I=    20 K1=T IndO=    20 NNew1=    20 Dot= 1.00D+00 DotN= 1.00D+00 ElMax1= 4.87D-01 ElMax1N= 4.87D-01
 OrtVc1:  Ph=3 IOff=     0 NNewB=     0 IAdd=    21 IPass= 1 DotMx2= 1.70D-04
 OrtVc1:  Ph=3 IOff=     0 NNewB=     0 IAdd=    21 IPass= 2 DotMx2= 1.14D-16
 OrtVc1:  IOff=     0 IS=     1 I=    21 K1=T IndO=    21 NNew1=    21 Dot= 1.00D+00 DotN= 1.00D+00 ElMax1= 4.92D-01 ElMax1N= 4.92D-01
 OrtVc1:  Ph=3 IOff=     0 NNewB=     0 IAdd=    22 IPass= 1 DotMx2= 1.95D-04
 OrtVc1:  Ph=3 IOff=     0 NNewB=     0 IAdd=    22 IPass= 2 DotMx2= 9.47D-17
 OrtVc1:  IOff=     0 IS=     1 I=    22 K1=T IndO=    22 NNew1=    22 Dot= 1.00D+00 DotN= 1.00D+00 ElMax1= 4.99D-01 ElMax1N= 4.99D-01
 OrtVc1:  Ph=3 IOff=     0 NNewB=     0 IAdd=    23 IPass= 1 DotMx2= 9.56D-05
 OrtVc1:  Ph=3 IOff=     0 NNewB=     0 IAdd=    23 IPass= 2 DotMx2= 2.74D-17
 OrtVc1:  IOff=     0 IS=     1 I=    23 K1=T IndO=    23 NNew1=    23 Dot= 1.00D+00 DotN= 1.00D+00 ElMax1= 3.93D-01 ElMax1N= 3.93D-01
 OrtVc1:  Ph=3 IOff=     0 NNewB=     0 IAdd=    24 IPass= 1 DotMx2= 2.06D-04
 OrtVc1:  Ph=3 IOff=     0 NNewB=     0 IAdd=    24 IPass= 2 DotMx2= 2.09D-17
 OrtVc1:  IOff=     0 IS=     1 I=    24 K1=T IndO=    24 NNew1=    24 Dot= 1.00D+00 DotN= 1.00D+00 ElMax1= 4.30D-01 ElMax1N= 4.30D-01
 OrtVc1:  Ph=3 IOff=     0 NNewB=     0 IAdd=    25 IPass= 1 DotMx2= 1.40D-04
 OrtVc1:  Ph=3 IOff=     0 NNewB=     0 IAdd=    25 IPass= 2 DotMx2= 1.69D-16
 OrtVc1:  IOff=     0 IS=     1 I=    25 K1=T IndO=    25 NNew1=    25 Dot= 1.00D+00 DotN= 1.00D+00 ElMax1= 2.80D-01 ElMax1N= 2.80D-01
 OrtVc1:  Ph=3 IOff=     0 NNewB=     0 IAdd=    26 IPass= 1 DotMx2= 1.41D-04
 OrtVc1:  Ph=3 IOff=     0 NNewB=     0 IAdd=    26 IPass= 2 DotMx2= 3.72D-16
 OrtVc1:  IOff=     0 IS=     1 I=    26 K1=T IndO=    26 NNew1=    26 Dot= 1.00D+00 DotN= 1.00D+00 ElMax1= 3.51D-01 ElMax1N= 3.51D-01
 OrtVc1:  Ph=3 IOff=     0 NNewB=     0 IAdd=    27 IPass= 1 DotMx2= 1.75D-04
 OrtVc1:  Ph=3 IOff=     0 NNewB=     0 IAdd=    27 IPass= 2 DotMx2= 2.91D-16
 OrtVc1:  IOff=     0 IS=     1 I=    27 K1=T IndO=    27 NNew1=    27 Dot= 1.00D+00 DotN= 1.00D+00 ElMax1= 5.19D-01 ElMax1N= 5.19D-01
 OrtVc1:  Ph=3 IOff=     0 NNewB=     0 IAdd=    28 IPass= 1 DotMx2= 1.25D-04
 OrtVc1:  Ph=3 IOff=     0 NNewB=     0 IAdd=    28 IPass= 2 DotMx2= 1.48D-17
 OrtVc1:  IOff=     0 IS=     1 I=    28 K1=T IndO=    28 NNew1=    28 Dot= 1.00D+00 DotN= 1.00D+00 ElMax1= 3.98D-01 ElMax1N= 3.98D-01
 OrtVc1:  Ph=3 IOff=     0 NNewB=     0 IAdd=    29 IPass= 1 DotMx2= 1.23D-04
 OrtVc1:  Ph=3 IOff=     0 NNewB=     0 IAdd=    29 IPass= 2 DotMx2= 3.24D-17
 OrtVc1:  IOff=     0 IS=     1 I=    29 K1=T IndO=    29 NNew1=    29 Dot= 1.00D+00 DotN= 1.00D+00 ElMax1= 3.29D-01 ElMax1N= 3.29D-01
 OrtVc1:  Ph=3 IOff=     0 NNewB=     0 IAdd=    30 IPass= 1 DotMx2= 1.26D-04
 OrtVc1:  Ph=3 IOff=     0 NNewB=     0 IAdd=    30 IPass= 2 DotMx2= 2.81D-16
 OrtVc1:  IOff=     0 IS=     1 I=    30 K1=T IndO=    30 NNew1=    30 Dot= 1.00D+00 DotN= 1.00D+00 ElMax1= 2.84D-01 ElMax1N= 2.84D-01
 OrtVc1:  Ph=2 IOff=    30 IPass= 1 DotMx1= 2.31D-04
 OrtVc1:  Ph=2 IOff=    30 IPass= 2 DotMx1= 1.49D-16
 OrtVc1:  IOff=     0 IS=    31 I=    31 K1=T IndO=    31 NNew1=     1 Dot= 1.00D+00 DotN= 1.00D+00 ElMax1= 3.82D-01 ElMax1N= 3.82D-01
 OrtVc1:  Ph=3 IOff=     0 NNewB=    30 IAdd=    32 IPass= 1 DotMx2= 6.11D-05
 OrtVc1:  Ph=3 IOff=     0 NNewB=    30 IAdd=    32 IPass= 2 DotMx2= 1.35D-19
 OrtVc1:  IOff=     0 IS=    31 I=    32 K1=T IndO=    32 NNew1=     2 Dot= 1.00D+00 DotN= 1.00D+00 ElMax1= 4.21D-01 ElMax1N= 4.21D-01
 Root      1 not converged, maximum delta is    0.187497794986758
 Root      2 not converged, maximum delta is    0.049888286044626
 Root      3 not converged, maximum delta is    0.042834681069190
 Root      4 not converged, maximum delta is    0.195921179386392
 Excitation Energies [eV] at current iteration:
 Root      1 :     7.747350369989579   Change is   -1.526802636634213
 Root      2 :     9.253571681759659   Change is   -0.100166371150468
 Root      3 :     9.469857156450285   Change is   -0.151911165376722
 Root      4 :     9.589896421677022   Change is   -0.285933394314402
 OrtVec:  Test1= 1.00D+00 Test2= 1.00D-06
 OrtVec:  NIn=      4 NOld=     32 NBNew=      4 NBOld=     36
 OrtVc1:  Ph=1 IOff=     0 IPass= 1 DotMx1= 2.64D-03
 OrtVc1:  Ph=1 IOff=     0 IPass= 2 DotMx1= 4.16D-18
 OrtVc1:  Ph=2 IOff=     0 IPass= 1 DotMx1= 0.00D+00
 OrtVc1:  IOff=     0 IS=     1 I=     1 K1=T IndO=     1 NNew1=     1 Dot= 3.28D-04 DotN= 3.28D-04 ElMax1= 8.67D-03 ElMax1N= 8.67D-03
 OrtVc1:  Ph=3 IOff=     0 NNewB=     0 IAdd=     2 IPass= 1 DotMx2= 6.12D-07
 OrtVc1:  Ph=3 IOff=     0 NNewB=     0 IAdd=     2 IPass= 2 DotMx2= 2.73D-22
 OrtVc1:  IOff=     0 IS=     1 I=     2 K1=T IndO=     2 NNew1=     2 Dot= 7.99D-05 DotN= 7.99D-05 ElMax1= 2.59D-03 ElMax1N= 2.59D-03
 OrtVc1:  Ph=3 IOff=     0 NNewB=     0 IAdd=     3 IPass= 1 DotMx2= 1.72D-05
 OrtVc1:  Ph=3 IOff=     0 NNewB=     0 IAdd=     3 IPass= 2 DotMx2= 1.56D-20
 OrtVc1:  IOff=     0 IS=     1 I=     3 K1=T IndO=     3 NNew1=     3 Dot= 2.70D-05 DotN= 2.70D-05 ElMax1= 1.99D-03 ElMax1N= 1.99D-03
 OrtVc1:  Ph=3 IOff=     0 NNewB=     0 IAdd=     4 IPass= 1 DotMx2= 6.50D-04
 OrtVc1:  Ph=3 IOff=     0 NNewB=     0 IAdd=     4 IPass= 2 DotMx2= 4.74D-19
 OrtVc1:  IOff=     0 IS=     1 I=     4 K1=T IndO=     4 NNew1=     4 Dot= 1.37D-04 DotN= 1.37D-04 ElMax1= 3.62D-03 ElMax1N= 3.62D-03
 Iteration     3 Dimension    36 NMult    36
 OrtVec:  Test1= 1.00D+00 Test2= 1.00D-06
 OrtVec:  NIn=     36 NOld=      0 NBNew=     36 NBOld=     36
 OrtVc1:  Ph=1 IOff=     0 IPass= 1 DotMx1= 0.00D+00
 OrtVc1:  Ph=2 IOff=     0 IPass= 1 DotMx1= 0.00D+00
 OrtVc1:  IOff=     0 IS=     1 I=     1 K1=T IndO=     1 NNew1=     1 Dot= 1.00D+00 DotN= 1.00D+00 ElMax1= 6.77D-01 ElMax1N= 6.77D-01
 OrtVc1:  Ph=3 IOff=     0 NNewB=     0 IAdd=     2 IPass= 1 DotMx2= 2.86D-05
 OrtVc1:  Ph=3 IOff=     0 NNewB=     0 IAdd=     2 IPass= 2 DotMx2= 5.41D-21
 OrtVc1:  IOff=     0 IS=     1 I=     2 K1=T IndO=     2 NNew1=     2 Dot= 1.00D+00 DotN= 1.00D+00 ElMax1= 6.22D-01 ElMax1N= 6.22D-01
 OrtVc1:  Ph=3 IOff=     0 NNewB=     0 IAdd=     3 IPass= 1 DotMx2= 1.93D-05
 OrtVc1:  Ph=3 IOff=     0 NNewB=     0 IAdd=     3 IPass= 2 DotMx2= 4.35D-19
 OrtVc1:  IOff=     0 IS=     1 I=     3 K1=T IndO=     3 NNew1=     3 Dot= 1.00D+00 DotN= 1.00D+00 ElMax1= 6.58D-01 ElMax1N= 6.58D-01
 OrtVc1:  Ph=3 IOff=     0 NNewB=     0 IAdd=     4 IPass= 1 DotMx2= 1.38D-05
 OrtVc1:  Ph=3 IOff=     0 NNewB=     0 IAdd=     4 IPass= 2 DotMx2= 7.59D-19
 OrtVc1:  IOff=     0 IS=     1 I=     4 K1=T IndO=     4 NNew1=     4 Dot= 1.00D+00 DotN= 1.00D+00 ElMax1= 6.66D-01 ElMax1N= 6.66D-01
 OrtVc1:  Ph=3 IOff=     0 NNewB=     0 IAdd=     5 IPass= 1 DotMx2= 3.84D-05
 OrtVc1:  Ph=3 IOff=     0 NNewB=     0 IAdd=     5 IPass= 2 DotMx2= 4.58D-17
 OrtVc1:  IOff=     0 IS=     1 I=     5 K1=T IndO=     5 NNew1=     5 Dot= 1.00D+00 DotN= 1.00D+00 ElMax1= 6.27D-01 ElMax1N= 6.27D-01
 OrtVc1:  Ph=3 IOff=     0 NNewB=     0 IAdd=     6 IPass= 1 DotMx2= 1.45D-04
 OrtVc1:  Ph=3 IOff=     0 NNewB=     0 IAdd=     6 IPass= 2 DotMx2= 5.50D-18
 OrtVc1:  IOff=     0 IS=     1 I=     6 K1=T IndO=     6 NNew1=     6 Dot= 1.00D+00 DotN= 1.00D+00 ElMax1= 5.25D-01 ElMax1N= 5.25D-01
 OrtVc1:  Ph=3 IOff=     0 NNewB=     0 IAdd=     7 IPass= 1 DotMx2= 5.43D-05
 OrtVc1:  Ph=3 IOff=     0 NNewB=     0 IAdd=     7 IPass= 2 DotMx2= 3.09D-17
 OrtVc1:  IOff=     0 IS=     1 I=     7 K1=T IndO=     7 NNew1=     7 Dot= 1.00D+00 DotN= 1.00D+00 ElMax1= 5.41D-01 ElMax1N= 5.41D-01
 OrtVc1:  Ph=3 IOff=     0 NNewB=     0 IAdd=     8 IPass= 1 DotMx2= 5.53D-05
 OrtVc1:  Ph=3 IOff=     0 NNewB=     0 IAdd=     8 IPass= 2 DotMx2= 1.64D-19
 OrtVc1:  IOff=     0 IS=     1 I=     8 K1=T IndO=     8 NNew1=     8 Dot= 1.00D+00 DotN= 1.00D+00 ElMax1= 6.66D-01 ElMax1N= 6.66D-01
 OrtVc1:  Ph=3 IOff=     0 NNewB=     0 IAdd=     9 IPass= 1 DotMx2= 6.90D-05
 OrtVc1:  Ph=3 IOff=     0 NNewB=     0 IAdd=     9 IPass= 2 DotMx2= 1.10D-16
 OrtVc1:  IOff=     0 IS=     1 I=     9 K1=T IndO=     9 NNew1=     9 Dot= 1.00D+00 DotN= 1.00D+00 ElMax1= 5.36D-01 ElMax1N= 5.36D-01
 OrtVc1:  Ph=3 IOff=     0 NNewB=     0 IAdd=    10 IPass= 1 DotMx2= 9.70D-05
 OrtVc1:  Ph=3 IOff=     0 NNewB=     0 IAdd=    10 IPass= 2 DotMx2= 9.28D-18
 OrtVc1:  IOff=     0 IS=     1 I=    10 K1=T IndO=    10 NNew1=    10 Dot= 1.00D+00 DotN= 1.00D+00 ElMax1= 5.95D-01 ElMax1N= 5.95D-01
 OrtVc1:  Ph=3 IOff=     0 NNewB=     0 IAdd=    11 IPass= 1 DotMx2= 1.21D-04
 OrtVc1:  Ph=3 IOff=     0 NNewB=     0 IAdd=    11 IPass= 2 DotMx2= 1.00D-16
 OrtVc1:  IOff=     0 IS=     1 I=    11 K1=T IndO=    11 NNew1=    11 Dot= 1.00D+00 DotN= 1.00D+00 ElMax1= 5.49D-01 ElMax1N= 5.49D-01
 OrtVc1:  Ph=3 IOff=     0 NNewB=     0 IAdd=    12 IPass= 1 DotMx2= 1.09D-04
 OrtVc1:  Ph=3 IOff=     0 NNewB=     0 IAdd=    12 IPass= 2 DotMx2= 5.90D-17
 OrtVc1:  IOff=     0 IS=     1 I=    12 K1=T IndO=    12 NNew1=    12 Dot= 1.00D+00 DotN= 1.00D+00 ElMax1= 5.33D-01 ElMax1N= 5.33D-01
 OrtVc1:  Ph=3 IOff=     0 NNewB=     0 IAdd=    13 IPass= 1 DotMx2= 1.17D-04
 OrtVc1:  Ph=3 IOff=     0 NNewB=     0 IAdd=    13 IPass= 2 DotMx2= 1.22D-17
 OrtVc1:  IOff=     0 IS=     1 I=    13 K1=T IndO=    13 NNew1=    13 Dot= 1.00D+00 DotN= 1.00D+00 ElMax1= 6.90D-01 ElMax1N= 6.90D-01
 OrtVc1:  Ph=3 IOff=     0 NNewB=     0 IAdd=    14 IPass= 1 DotMx2= 1.10D-04
 OrtVc1:  Ph=3 IOff=     0 NNewB=     0 IAdd=    14 IPass= 2 DotMx2= 6.30D-17
 OrtVc1:  IOff=     0 IS=     1 I=    14 K1=T IndO=    14 NNew1=    14 Dot= 1.00D+00 DotN= 1.00D+00 ElMax1= 5.46D-01 ElMax1N= 5.46D-01
 OrtVc1:  Ph=3 IOff=     0 NNewB=     0 IAdd=    15 IPass= 1 DotMx2= 1.80D-04
 OrtVc1:  Ph=3 IOff=     0 NNewB=     0 IAdd=    15 IPass= 2 DotMx2= 1.42D-17
 OrtVc1:  IOff=     0 IS=     1 I=    15 K1=T IndO=    15 NNew1=    15 Dot= 1.00D+00 DotN= 1.00D+00 ElMax1= 5.56D-01 ElMax1N= 5.56D-01
 OrtVc1:  Ph=3 IOff=     0 NNewB=     0 IAdd=    16 IPass= 1 DotMx2= 1.29D-04
 OrtVc1:  Ph=3 IOff=     0 NNewB=     0 IAdd=    16 IPass= 2 DotMx2= 1.88D-17
 OrtVc1:  IOff=     0 IS=     1 I=    16 K1=T IndO=    16 NNew1=    16 Dot= 1.00D+00 DotN= 1.00D+00 ElMax1= 5.33D-01 ElMax1N= 5.33D-01
 OrtVc1:  Ph=3 IOff=     0 NNewB=     0 IAdd=    17 IPass= 1 DotMx2= 1.88D-04
 OrtVc1:  Ph=3 IOff=     0 NNewB=     0 IAdd=    17 IPass= 2 DotMx2= 1.75D-16
 OrtVc1:  IOff=     0 IS=     1 I=    17 K1=T IndO=    17 NNew1=    17 Dot= 1.00D+00 DotN= 1.00D+00 ElMax1= 3.94D-01 ElMax1N= 3.94D-01
 OrtVc1:  Ph=3 IOff=     0 NNewB=     0 IAdd=    18 IPass= 1 DotMx2= 1.43D-04
 OrtVc1:  Ph=3 IOff=     0 NNewB=     0 IAdd=    18 IPass= 2 DotMx2= 3.69D-17
 OrtVc1:  IOff=     0 IS=     1 I=    18 K1=T IndO=    18 NNew1=    18 Dot= 1.00D+00 DotN= 1.00D+00 ElMax1= 3.50D-01 ElMax1N= 3.50D-01
 OrtVc1:  Ph=3 IOff=     0 NNewB=     0 IAdd=    19 IPass= 1 DotMx2= 1.69D-04
 OrtVc1:  Ph=3 IOff=     0 NNewB=     0 IAdd=    19 IPass= 2 DotMx2= 1.92D-17
 OrtVc1:  IOff=     0 IS=     1 I=    19 K1=T IndO=    19 NNew1=    19 Dot= 1.00D+00 DotN= 1.00D+00 ElMax1= 4.60D-01 ElMax1N= 4.60D-01
 OrtVc1:  Ph=3 IOff=     0 NNewB=     0 IAdd=    20 IPass= 1 DotMx2= 2.27D-04
 OrtVc1:  Ph=3 IOff=     0 NNewB=     0 IAdd=    20 IPass= 2 DotMx2= 2.13D-16
 OrtVc1:  IOff=     0 IS=     1 I=    20 K1=T IndO=    20 NNew1=    20 Dot= 1.00D+00 DotN= 1.00D+00 ElMax1= 3.49D-01 ElMax1N= 3.49D-01
 OrtVc1:  Ph=3 IOff=     0 NNewB=     0 IAdd=    21 IPass= 1 DotMx2= 1.08D-04
 OrtVc1:  Ph=3 IOff=     0 NNewB=     0 IAdd=    21 IPass= 2 DotMx2= 1.30D-17
 OrtVc1:  IOff=     0 IS=     1 I=    21 K1=T IndO=    21 NNew1=    21 Dot= 1.00D+00 DotN= 1.00D+00 ElMax1= 6.52D-01 ElMax1N= 6.52D-01
 OrtVc1:  Ph=3 IOff=     0 NNewB=     0 IAdd=    22 IPass= 1 DotMx2= 1.24D-04
 OrtVc1:  Ph=3 IOff=     0 NNewB=     0 IAdd=    22 IPass= 2 DotMx2= 5.40D-17
 OrtVc1:  IOff=     0 IS=     1 I=    22 K1=T IndO=    22 NNew1=    22 Dot= 1.00D+00 DotN= 1.00D+00 ElMax1= 3.65D-01 ElMax1N= 3.65D-01
 OrtVc1:  Ph=3 IOff=     0 NNewB=     0 IAdd=    23 IPass= 1 DotMx2= 9.96D-05
 OrtVc1:  Ph=3 IOff=     0 NNewB=     0 IAdd=    23 IPass= 2 DotMx2= 9.16D-17
 OrtVc1:  IOff=     0 IS=     1 I=    23 K1=T IndO=    23 NNew1=    23 Dot= 1.00D+00 DotN= 1.00D+00 ElMax1= 4.69D-01 ElMax1N= 4.69D-01
 OrtVc1:  Ph=3 IOff=     0 NNewB=     0 IAdd=    24 IPass= 1 DotMx2= 1.54D-04
 OrtVc1:  Ph=3 IOff=     0 NNewB=     0 IAdd=    24 IPass= 2 DotMx2= 5.99D-17
 OrtVc1:  IOff=     0 IS=     1 I=    24 K1=T IndO=    24 NNew1=    24 Dot= 1.00D+00 DotN= 1.00D+00 ElMax1= 3.82D-01 ElMax1N= 3.82D-01
 OrtVc1:  Ph=3 IOff=     0 NNewB=     0 IAdd=    25 IPass= 1 DotMx2= 1.82D-04
 OrtVc1:  Ph=3 IOff=     0 NNewB=     0 IAdd=    25 IPass= 2 DotMx2= 2.74D-17
 OrtVc1:  IOff=     0 IS=     1 I=    25 K1=T IndO=    25 NNew1=    25 Dot= 1.00D+00 DotN= 1.00D+00 ElMax1= 4.93D-01 ElMax1N= 4.93D-01
 OrtVc1:  Ph=3 IOff=     0 NNewB=     0 IAdd=    26 IPass= 1 DotMx2= 1.36D-04
 OrtVc1:  Ph=3 IOff=     0 NNewB=     0 IAdd=    26 IPass= 2 DotMx2= 3.05D-16
 OrtVc1:  IOff=     0 IS=     1 I=    26 K1=T IndO=    26 NNew1=    26 Dot= 1.00D+00 DotN= 1.00D+00 ElMax1= 3.73D-01 ElMax1N= 3.73D-01
 OrtVc1:  Ph=3 IOff=     0 NNewB=     0 IAdd=    27 IPass= 1 DotMx2= 1.40D-04
 OrtVc1:  Ph=3 IOff=     0 NNewB=     0 IAdd=    27 IPass= 2 DotMx2= 9.36D-17
 OrtVc1:  IOff=     0 IS=     1 I=    27 K1=T IndO=    27 NNew1=    27 Dot= 1.00D+00 DotN= 1.00D+00 ElMax1= 4.58D-01 ElMax1N= 4.58D-01
 OrtVc1:  Ph=3 IOff=     0 NNewB=     0 IAdd=    28 IPass= 1 DotMx2= 1.23D-04
 OrtVc1:  Ph=3 IOff=     0 NNewB=     0 IAdd=    28 IPass= 2 DotMx2= 1.12D-16
 OrtVc1:  IOff=     0 IS=     1 I=    28 K1=T IndO=    28 NNew1=    28 Dot= 1.00D+00 DotN= 1.00D+00 ElMax1= 4.99D-01 ElMax1N= 4.99D-01
 OrtVc1:  Ph=3 IOff=     0 NNewB=     0 IAdd=    29 IPass= 1 DotMx2= 1.97D-04
 OrtVc1:  Ph=3 IOff=     0 NNewB=     0 IAdd=    29 IPass= 2 DotMx2= 6.89D-17
 OrtVc1:  IOff=     0 IS=     1 I=    29 K1=T IndO=    29 NNew1=    29 Dot= 1.00D+00 DotN= 1.00D+00 ElMax1= 5.09D-01 ElMax1N= 5.09D-01
 OrtVc1:  Ph=3 IOff=     0 NNewB=     0 IAdd=    30 IPass= 1 DotMx2= 1.40D-04
 OrtVc1:  Ph=3 IOff=     0 NNewB=     0 IAdd=    30 IPass= 2 DotMx2= 2.51D-17
 OrtVc1:  IOff=     0 IS=     1 I=    30 K1=T IndO=    30 NNew1=    30 Dot= 1.00D+00 DotN= 1.00D+00 ElMax1= 4.07D-01 ElMax1N= 4.07D-01
 OrtVc1:  Ph=2 IOff=    30 IPass= 1 DotMx1= 1.45D-04
 OrtVc1:  Ph=2 IOff=    30 IPass= 2 DotMx1= 3.85D-16
 OrtVc1:  IOff=     0 IS=    31 I=    31 K1=T IndO=    31 NNew1=     1 Dot= 1.00D+00 DotN= 1.00D+00 ElMax1= 3.31D-01 ElMax1N= 3.31D-01
 OrtVc1:  Ph=3 IOff=     0 NNewB=    30 IAdd=    32 IPass= 1 DotMx2= 9.01D-05
 OrtVc1:  Ph=3 IOff=     0 NNewB=    30 IAdd=    32 IPass= 2 DotMx2= 1.33D-19
 OrtVc1:  IOff=     0 IS=    31 I=    32 K1=T IndO=    32 NNew1=     2 Dot= 1.00D+00 DotN= 1.00D+00 ElMax1= 3.82D-01 ElMax1N= 3.82D-01
 OrtVc1:  Ph=3 IOff=     0 NNewB=    30 IAdd=    33 IPass= 1 DotMx2= 3.75D-05
 OrtVc1:  Ph=3 IOff=     0 NNewB=    30 IAdd=    33 IPass= 2 DotMx2= 1.47D-19
 OrtVc1:  IOff=     0 IS=    31 I=    33 K1=T IndO=    33 NNew1=     3 Dot= 1.00D+00 DotN= 1.00D+00 ElMax1= 3.65D-01 ElMax1N= 3.65D-01
 OrtVc1:  Ph=3 IOff=     0 NNewB=    30 IAdd=    34 IPass= 1 DotMx2= 7.68D-05
 OrtVc1:  Ph=3 IOff=     0 NNewB=    30 IAdd=    34 IPass= 2 DotMx2= 1.13D-17
 OrtVc1:  IOff=     0 IS=    31 I=    34 K1=T IndO=    34 NNew1=     4 Dot= 1.00D+00 DotN= 1.00D+00 ElMax1= 2.29D-01 ElMax1N= 2.29D-01
 OrtVc1:  Ph=3 IOff=     0 NNewB=    30 IAdd=    35 IPass= 1 DotMx2= 1.77D-04
 OrtVc1:  Ph=3 IOff=     0 NNewB=    30 IAdd=    35 IPass= 2 DotMx2= 2.87D-17
 OrtVc1:  IOff=     0 IS=    31 I=    35 K1=T IndO=    35 NNew1=     5 Dot= 1.00D+00 DotN= 1.00D+00 ElMax1= 3.46D-01 ElMax1N= 3.46D-01
 OrtVc1:  Ph=3 IOff=     0 NNewB=    30 IAdd=    36 IPass= 1 DotMx2= 3.93D-05
 OrtVc1:  Ph=3 IOff=     0 NNewB=    30 IAdd=    36 IPass= 2 DotMx2= 1.75D-16
 OrtVc1:  IOff=     0 IS=    31 I=    36 K1=T IndO=    36 NNew1=     6 Dot= 1.00D+00 DotN= 1.00D+00 ElMax1= 4.35D-01 ElMax1N= 4.35D-01
 Root      1 not converged, maximum delta is    0.014965428275259
 Root      2 not converged, maximum delta is    0.003942312905626
 Root      3 not converged, maximum delta is    0.003535194771670
 Root      4 not converged, maximum delta is    0.009030141803081
 Excitation Energies [eV] at current iteration:
 Root      1 :     7.733111913762784   Change is   -0.014238456226796
 Root      2 :     9.250709906772636   Change is   -0.002861774987024
 Root      3 :     9.469056560667424   Change is   -0.000800595782861
 Root      4 :     9.583402217323314   Change is   -0.006494204353707
 OrtVec:  Test1= 1.00D+00 Test2= 1.00D-06
 OrtVec:  NIn=      4 NOld=     36 NBNew=      4 NBOld=     40
 OrtVc1:  Ph=1 IOff=     0 IPass= 1 DotMx1= 7.53D-04
 OrtVc1:  Ph=1 IOff=     0 IPass= 2 DotMx1= 5.40D-19
 OrtVc1:  Ph=2 IOff=     0 IPass= 1 DotMx1= 0.00D+00
 OrtVc1:  IOff=     0 IS=     1 I=     1 K1=T IndO=     1 NNew1=     1 Dot= 6.57D-06 DotN= 6.57D-06 ElMax1= 6.59D-04 ElMax1N= 6.59D-04
 OrtVc1:  Ph=3 IOff=     0 NNewB=     0 IAdd=     2 IPass= 1 DotMx2= 1.44D-07
 OrtVc1:  Ph=3 IOff=     0 NNewB=     0 IAdd=     2 IPass= 2 DotMx2= 4.25D-23
 OrtVc1:  IOff=     0 IS=     1 I=     2 K1=T IndO=     2 NNew1=     2 Dot= 3.16D-06 DotN= 3.16D-06 ElMax1= 6.02D-04 ElMax1N= 6.02D-04
 OrtVc1:  Ph=3 IOff=     0 NNewB=     0 IAdd=     3 IPass= 1 DotMx2= 2.64D-06
 OrtVc1:  Ph=3 IOff=     0 NNewB=     0 IAdd=     3 IPass= 2 DotMx2= 1.35D-21
 OrtVc1:  IOff=     0 IS=     1 I=     3 K1=T IndO=     3 NNew1=     3 Dot= 2.68D-07 DotN= 2.68D-07 ElMax1= 1.62D-04 ElMax1N= 1.62D-04
 OrtVc1:  Ph=3 IOff=     0 NNewB=     0 IAdd=     4 IPass= 1 DotMx2= 5.43D-04
 OrtVc1:  Ph=3 IOff=     0 NNewB=     0 IAdd=     4 IPass= 2 DotMx2= 3.48D-19
 OrtVc1:  IOff=     0 IS=     1 I=     4 K1=T IndO=     4 NNew1=     4 Dot= 1.33D-06 DotN= 1.33D-06 ElMax1= 2.84D-04 ElMax1N= 2.84D-04
 Iteration     4 Dimension    40 NMult    40
 OrtVec:  Test1= 1.00D+00 Test2= 1.00D-06
 OrtVec:  NIn=     40 NOld=      0 NBNew=     40 NBOld=     40
 OrtVc1:  Ph=1 IOff=     0 IPass= 1 DotMx1= 0.00D+00
 OrtVc1:  Ph=2 IOff=     0 IPass= 1 DotMx1= 0.00D+00
 OrtVc1:  IOff=     0 IS=     1 I=     1 K1=T IndO=     1 NNew1=     1 Dot= 1.00D+00 DotN= 1.00D+00 ElMax1= 6.77D-01 ElMax1N= 6.77D-01
 OrtVc1:  Ph=3 IOff=     0 NNewB=     0 IAdd=     2 IPass= 1 DotMx2= 2.86D-05
 OrtVc1:  Ph=3 IOff=     0 NNewB=     0 IAdd=     2 IPass= 2 DotMx2= 1.98D-20
 OrtVc1:  IOff=     0 IS=     1 I=     2 K1=T IndO=     2 NNew1=     2 Dot= 1.00D+00 DotN= 1.00D+00 ElMax1= 6.22D-01 ElMax1N= 6.22D-01
 OrtVc1:  Ph=3 IOff=     0 NNewB=     0 IAdd=     3 IPass= 1 DotMx2= 2.00D-05
 OrtVc1:  Ph=3 IOff=     0 NNewB=     0 IAdd=     3 IPass= 2 DotMx2= 4.29D-19
 OrtVc1:  IOff=     0 IS=     1 I=     3 K1=T IndO=     3 NNew1=     3 Dot= 1.00D+00 DotN= 1.00D+00 ElMax1= 6.58D-01 ElMax1N= 6.58D-01
 OrtVc1:  Ph=3 IOff=     0 NNewB=     0 IAdd=     4 IPass= 1 DotMx2= 1.40D-05
 OrtVc1:  Ph=3 IOff=     0 NNewB=     0 IAdd=     4 IPass= 2 DotMx2= 2.00D-18
 OrtVc1:  IOff=     0 IS=     1 I=     4 K1=T IndO=     4 NNew1=     4 Dot= 1.00D+00 DotN= 1.00D+00 ElMax1= 6.66D-01 ElMax1N= 6.66D-01
 OrtVc1:  Ph=3 IOff=     0 NNewB=     0 IAdd=     5 IPass= 1 DotMx2= 3.84D-05
 OrtVc1:  Ph=3 IOff=     0 NNewB=     0 IAdd=     5 IPass= 2 DotMx2= 3.69D-18
 OrtVc1:  IOff=     0 IS=     1 I=     5 K1=T IndO=     5 NNew1=     5 Dot= 1.00D+00 DotN= 1.00D+00 ElMax1= 6.27D-01 ElMax1N= 6.27D-01
 OrtVc1:  Ph=3 IOff=     0 NNewB=     0 IAdd=     6 IPass= 1 DotMx2= 1.45D-04
 OrtVc1:  Ph=3 IOff=     0 NNewB=     0 IAdd=     6 IPass= 2 DotMx2= 4.90D-17
 OrtVc1:  IOff=     0 IS=     1 I=     6 K1=T IndO=     6 NNew1=     6 Dot= 1.00D+00 DotN= 1.00D+00 ElMax1= 5.25D-01 ElMax1N= 5.25D-01
 OrtVc1:  Ph=3 IOff=     0 NNewB=     0 IAdd=     7 IPass= 1 DotMx2= 5.42D-05
 OrtVc1:  Ph=3 IOff=     0 NNewB=     0 IAdd=     7 IPass= 2 DotMx2= 1.35D-16
 OrtVc1:  IOff=     0 IS=     1 I=     7 K1=T IndO=     7 NNew1=     7 Dot= 1.00D+00 DotN= 1.00D+00 ElMax1= 5.41D-01 ElMax1N= 5.41D-01
 OrtVc1:  Ph=3 IOff=     0 NNewB=     0 IAdd=     8 IPass= 1 DotMx2= 5.55D-05
 OrtVc1:  Ph=3 IOff=     0 NNewB=     0 IAdd=     8 IPass= 2 DotMx2= 5.67D-20
 OrtVc1:  IOff=     0 IS=     1 I=     8 K1=T IndO=     8 NNew1=     8 Dot= 1.00D+00 DotN= 1.00D+00 ElMax1= 6.66D-01 ElMax1N= 6.66D-01
 OrtVc1:  Ph=3 IOff=     0 NNewB=     0 IAdd=     9 IPass= 1 DotMx2= 6.89D-05
 OrtVc1:  Ph=3 IOff=     0 NNewB=     0 IAdd=     9 IPass= 2 DotMx2= 5.37D-17
 OrtVc1:  IOff=     0 IS=     1 I=     9 K1=T IndO=     9 NNew1=     9 Dot= 1.00D+00 DotN= 1.00D+00 ElMax1= 5.36D-01 ElMax1N= 5.36D-01
 OrtVc1:  Ph=3 IOff=     0 NNewB=     0 IAdd=    10 IPass= 1 DotMx2= 9.73D-05
 OrtVc1:  Ph=3 IOff=     0 NNewB=     0 IAdd=    10 IPass= 2 DotMx2= 6.29D-18
 OrtVc1:  IOff=     0 IS=     1 I=    10 K1=T IndO=    10 NNew1=    10 Dot= 1.00D+00 DotN= 1.00D+00 ElMax1= 5.95D-01 ElMax1N= 5.95D-01
 OrtVc1:  Ph=3 IOff=     0 NNewB=     0 IAdd=    11 IPass= 1 DotMx2= 1.21D-04
 OrtVc1:  Ph=3 IOff=     0 NNewB=     0 IAdd=    11 IPass= 2 DotMx2= 1.11D-16
 OrtVc1:  IOff=     0 IS=     1 I=    11 K1=T IndO=    11 NNew1=    11 Dot= 1.00D+00 DotN= 1.00D+00 ElMax1= 5.49D-01 ElMax1N= 5.49D-01
 OrtVc1:  Ph=3 IOff=     0 NNewB=     0 IAdd=    12 IPass= 1 DotMx2= 1.08D-04
 OrtVc1:  Ph=3 IOff=     0 NNewB=     0 IAdd=    12 IPass= 2 DotMx2= 4.80D-17
 OrtVc1:  IOff=     0 IS=     1 I=    12 K1=T IndO=    12 NNew1=    12 Dot= 1.00D+00 DotN= 1.00D+00 ElMax1= 5.33D-01 ElMax1N= 5.33D-01
 OrtVc1:  Ph=3 IOff=     0 NNewB=     0 IAdd=    13 IPass= 1 DotMx2= 1.17D-04
 OrtVc1:  Ph=3 IOff=     0 NNewB=     0 IAdd=    13 IPass= 2 DotMx2= 1.33D-17
 OrtVc1:  IOff=     0 IS=     1 I=    13 K1=T IndO=    13 NNew1=    13 Dot= 1.00D+00 DotN= 1.00D+00 ElMax1= 6.90D-01 ElMax1N= 6.90D-01
 OrtVc1:  Ph=3 IOff=     0 NNewB=     0 IAdd=    14 IPass= 1 DotMx2= 1.09D-04
 OrtVc1:  Ph=3 IOff=     0 NNewB=     0 IAdd=    14 IPass= 2 DotMx2= 1.23D-16
 OrtVc1:  IOff=     0 IS=     1 I=    14 K1=T IndO=    14 NNew1=    14 Dot= 1.00D+00 DotN= 1.00D+00 ElMax1= 5.46D-01 ElMax1N= 5.46D-01
 OrtVc1:  Ph=3 IOff=     0 NNewB=     0 IAdd=    15 IPass= 1 DotMx2= 1.56D-04
 OrtVc1:  Ph=3 IOff=     0 NNewB=     0 IAdd=    15 IPass= 2 DotMx2= 1.79D-17
 OrtVc1:  IOff=     0 IS=     1 I=    15 K1=T IndO=    15 NNew1=    15 Dot= 1.00D+00 DotN= 1.00D+00 ElMax1= 5.58D-01 ElMax1N= 5.58D-01
 OrtVc1:  Ph=3 IOff=     0 NNewB=     0 IAdd=    16 IPass= 1 DotMx2= 1.33D-04
 OrtVc1:  Ph=3 IOff=     0 NNewB=     0 IAdd=    16 IPass= 2 DotMx2= 2.17D-17
 OrtVc1:  IOff=     0 IS=     1 I=    16 K1=T IndO=    16 NNew1=    16 Dot= 1.00D+00 DotN= 1.00D+00 ElMax1= 5.31D-01 ElMax1N= 5.31D-01
 OrtVc1:  Ph=3 IOff=     0 NNewB=     0 IAdd=    17 IPass= 1 DotMx2= 1.05D-04
 OrtVc1:  Ph=3 IOff=     0 NNewB=     0 IAdd=    17 IPass= 2 DotMx2= 8.11D-18
 OrtVc1:  IOff=     0 IS=     1 I=    17 K1=T IndO=    17 NNew1=    17 Dot= 1.00D+00 DotN= 1.00D+00 ElMax1= 3.56D-01 ElMax1N= 3.56D-01
 OrtVc1:  Ph=3 IOff=     0 NNewB=     0 IAdd=    18 IPass= 1 DotMx2= 2.01D-04
 OrtVc1:  Ph=3 IOff=     0 NNewB=     0 IAdd=    18 IPass= 2 DotMx2= 9.35D-17
 OrtVc1:  IOff=     0 IS=     1 I=    18 K1=T IndO=    18 NNew1=    18 Dot= 1.00D+00 DotN= 1.00D+00 ElMax1= 4.66D-01 ElMax1N= 4.66D-01
 OrtVc1:  Ph=3 IOff=     0 NNewB=     0 IAdd=    19 IPass= 1 DotMx2= 2.06D-04
 OrtVc1:  Ph=3 IOff=     0 NNewB=     0 IAdd=    19 IPass= 2 DotMx2= 2.87D-17
 OrtVc1:  IOff=     0 IS=     1 I=    19 K1=T IndO=    19 NNew1=    19 Dot= 1.00D+00 DotN= 1.00D+00 ElMax1= 5.16D-01 ElMax1N= 5.16D-01
 OrtVc1:  Ph=3 IOff=     0 NNewB=     0 IAdd=    20 IPass= 1 DotMx2= 1.19D-04
 OrtVc1:  Ph=3 IOff=     0 NNewB=     0 IAdd=    20 IPass= 2 DotMx2= 1.30D-16
 OrtVc1:  IOff=     0 IS=     1 I=    20 K1=T IndO=    20 NNew1=    20 Dot= 1.00D+00 DotN= 1.00D+00 ElMax1= 4.67D-01 ElMax1N= 4.67D-01
 OrtVc1:  Ph=3 IOff=     0 NNewB=     0 IAdd=    21 IPass= 1 DotMx2= 1.63D-04
 OrtVc1:  Ph=3 IOff=     0 NNewB=     0 IAdd=    21 IPass= 2 DotMx2= 2.29D-16
 OrtVc1:  IOff=     0 IS=     1 I=    21 K1=T IndO=    21 NNew1=    21 Dot= 1.00D+00 DotN= 1.00D+00 ElMax1= 4.60D-01 ElMax1N= 4.60D-01
 OrtVc1:  Ph=3 IOff=     0 NNewB=     0 IAdd=    22 IPass= 1 DotMx2= 6.89D-05
 OrtVc1:  Ph=3 IOff=     0 NNewB=     0 IAdd=    22 IPass= 2 DotMx2= 1.09D-16
 OrtVc1:  IOff=     0 IS=     1 I=    22 K1=T IndO=    22 NNew1=    22 Dot= 1.00D+00 DotN= 1.00D+00 ElMax1= 6.50D-01 ElMax1N= 6.50D-01
 OrtVc1:  Ph=3 IOff=     0 NNewB=     0 IAdd=    23 IPass= 1 DotMx2= 1.39D-04
 OrtVc1:  Ph=3 IOff=     0 NNewB=     0 IAdd=    23 IPass= 2 DotMx2= 1.21D-16
 OrtVc1:  IOff=     0 IS=     1 I=    23 K1=T IndO=    23 NNew1=    23 Dot= 1.00D+00 DotN= 1.00D+00 ElMax1= 3.65D-01 ElMax1N= 3.65D-01
 OrtVc1:  Ph=3 IOff=     0 NNewB=     0 IAdd=    24 IPass= 1 DotMx2= 1.52D-04
 OrtVc1:  Ph=3 IOff=     0 NNewB=     0 IAdd=    24 IPass= 2 DotMx2= 7.25D-17
 OrtVc1:  IOff=     0 IS=     1 I=    24 K1=T IndO=    24 NNew1=    24 Dot= 1.00D+00 DotN= 1.00D+00 ElMax1= 3.46D-01 ElMax1N= 3.46D-01
 OrtVc1:  Ph=3 IOff=     0 NNewB=     0 IAdd=    25 IPass= 1 DotMx2= 1.61D-04
 OrtVc1:  Ph=3 IOff=     0 NNewB=     0 IAdd=    25 IPass= 2 DotMx2= 1.19D-16
 OrtVc1:  IOff=     0 IS=     1 I=    25 K1=T IndO=    25 NNew1=    25 Dot= 1.00D+00 DotN= 1.00D+00 ElMax1= 3.24D-01 ElMax1N= 3.24D-01
 OrtVc1:  Ph=3 IOff=     0 NNewB=     0 IAdd=    26 IPass= 1 DotMx2= 1.46D-04
 OrtVc1:  Ph=3 IOff=     0 NNewB=     0 IAdd=    26 IPass= 2 DotMx2= 9.43D-17
 OrtVc1:  IOff=     0 IS=     1 I=    26 K1=T IndO=    26 NNew1=    26 Dot= 1.00D+00 DotN= 1.00D+00 ElMax1= 4.93D-01 ElMax1N= 4.93D-01
 OrtVc1:  Ph=3 IOff=     0 NNewB=     0 IAdd=    27 IPass= 1 DotMx2= 1.33D-04
 OrtVc1:  Ph=3 IOff=     0 NNewB=     0 IAdd=    27 IPass= 2 DotMx2= 2.24D-16
 OrtVc1:  IOff=     0 IS=     1 I=    27 K1=T IndO=    27 NNew1=    27 Dot= 1.00D+00 DotN= 1.00D+00 ElMax1= 3.96D-01 ElMax1N= 3.96D-01
 OrtVc1:  Ph=3 IOff=     0 NNewB=     0 IAdd=    28 IPass= 1 DotMx2= 1.68D-04
 OrtVc1:  Ph=3 IOff=     0 NNewB=     0 IAdd=    28 IPass= 2 DotMx2= 7.36D-17
 OrtVc1:  IOff=     0 IS=     1 I=    28 K1=T IndO=    28 NNew1=    28 Dot= 1.00D+00 DotN= 1.00D+00 ElMax1= 4.60D-01 ElMax1N= 4.60D-01
 OrtVc1:  Ph=3 IOff=     0 NNewB=     0 IAdd=    29 IPass= 1 DotMx2= 9.89D-05
 OrtVc1:  Ph=3 IOff=     0 NNewB=     0 IAdd=    29 IPass= 2 DotMx2= 5.57D-17
 OrtVc1:  IOff=     0 IS=     1 I=    29 K1=T IndO=    29 NNew1=    29 Dot= 1.00D+00 DotN= 1.00D+00 ElMax1= 3.28D-01 ElMax1N= 3.28D-01
 OrtVc1:  Ph=3 IOff=     0 NNewB=     0 IAdd=    30 IPass= 1 DotMx2= 1.90D-04
 OrtVc1:  Ph=3 IOff=     0 NNewB=     0 IAdd=    30 IPass= 2 DotMx2= 2.78D-16
 OrtVc1:  IOff=     0 IS=     1 I=    30 K1=T IndO=    30 NNew1=    30 Dot= 1.00D+00 DotN= 1.00D+00 ElMax1= 5.09D-01 ElMax1N= 5.09D-01
 OrtVc1:  Ph=2 IOff=    30 IPass= 1 DotMx1= 2.36D-04
 OrtVc1:  Ph=2 IOff=    30 IPass= 2 DotMx1= 2.21D-16
 OrtVc1:  IOff=     0 IS=    31 I=    31 K1=T IndO=    31 NNew1=     1 Dot= 1.00D+00 DotN= 1.00D+00 ElMax1= 3.91D-01 ElMax1N= 3.91D-01
 OrtVc1:  Ph=3 IOff=     0 NNewB=    30 IAdd=    32 IPass= 1 DotMx2= 1.55D-05
 OrtVc1:  Ph=3 IOff=     0 NNewB=    30 IAdd=    32 IPass= 2 DotMx2= 6.76D-19
 OrtVc1:  IOff=     0 IS=    31 I=    32 K1=T IndO=    32 NNew1=     2 Dot= 1.00D+00 DotN= 1.00D+00 ElMax1= 3.57D-01 ElMax1N= 3.57D-01
 OrtVc1:  Ph=3 IOff=     0 NNewB=    30 IAdd=    33 IPass= 1 DotMx2= 1.13D-05
 OrtVc1:  Ph=3 IOff=     0 NNewB=    30 IAdd=    33 IPass= 2 DotMx2= 1.35D-16
 OrtVc1:  IOff=     0 IS=    31 I=    33 K1=T IndO=    33 NNew1=     3 Dot= 1.00D+00 DotN= 1.00D+00 ElMax1= 2.99D-01 ElMax1N= 2.99D-01
 OrtVc1:  Ph=3 IOff=     0 NNewB=    30 IAdd=    34 IPass= 1 DotMx2= 8.51D-05
 OrtVc1:  Ph=3 IOff=     0 NNewB=    30 IAdd=    34 IPass= 2 DotMx2= 4.03D-19
 OrtVc1:  IOff=     0 IS=    31 I=    34 K1=T IndO=    34 NNew1=     4 Dot= 1.00D+00 DotN= 1.00D+00 ElMax1= 3.76D-01 ElMax1N= 3.76D-01
 OrtVc1:  Ph=3 IOff=     0 NNewB=    30 IAdd=    35 IPass= 1 DotMx2= 1.04D-04
 OrtVc1:  Ph=3 IOff=     0 NNewB=    30 IAdd=    35 IPass= 2 DotMx2= 2.33D-19
 OrtVc1:  IOff=     0 IS=    31 I=    35 K1=T IndO=    35 NNew1=     5 Dot= 1.00D+00 DotN= 1.00D+00 ElMax1= 3.82D-01 ElMax1N= 3.82D-01
 OrtVc1:  Ph=3 IOff=     0 NNewB=    30 IAdd=    36 IPass= 1 DotMx2= 5.87D-05
 OrtVc1:  Ph=3 IOff=     0 NNewB=    30 IAdd=    36 IPass= 2 DotMx2= 2.93D-17
 OrtVc1:  IOff=     0 IS=    31 I=    36 K1=T IndO=    36 NNew1=     6 Dot= 1.00D+00 DotN= 1.00D+00 ElMax1= 2.77D-01 ElMax1N= 2.77D-01
 OrtVc1:  Ph=3 IOff=     0 NNewB=    30 IAdd=    37 IPass= 1 DotMx2= 4.92D-05
 OrtVc1:  Ph=3 IOff=     0 NNewB=    30 IAdd=    37 IPass= 2 DotMx2= 1.99D-16
 OrtVc1:  IOff=     0 IS=    31 I=    37 K1=T IndO=    37 NNew1=     7 Dot= 1.00D+00 DotN= 1.00D+00 ElMax1= 3.12D-01 ElMax1N= 3.12D-01
 OrtVc1:  Ph=3 IOff=     0 NNewB=    30 IAdd=    38 IPass= 1 DotMx2= 2.01D-04
 OrtVc1:  Ph=3 IOff=     0 NNewB=    30 IAdd=    38 IPass= 2 DotMx2= 6.05D-17
 OrtVc1:  IOff=     0 IS=    31 I=    38 K1=T IndO=    38 NNew1=     8 Dot= 1.00D+00 DotN= 1.00D+00 ElMax1= 2.71D-01 ElMax1N= 2.71D-01
 OrtVc1:  Ph=3 IOff=     0 NNewB=    30 IAdd=    39 IPass= 1 DotMx2= 1.20D-04
 OrtVc1:  Ph=3 IOff=     0 NNewB=    30 IAdd=    39 IPass= 2 DotMx2= 2.41D-17
 OrtVc1:  IOff=     0 IS=    31 I=    39 K1=T IndO=    39 NNew1=     9 Dot= 1.00D+00 DotN= 1.00D+00 ElMax1= 3.05D-01 ElMax1N= 3.05D-01
 OrtVc1:  Ph=3 IOff=     0 NNewB=    30 IAdd=    40 IPass= 1 DotMx2= 1.47D-04
 OrtVc1:  Ph=3 IOff=     0 NNewB=    30 IAdd=    40 IPass= 2 DotMx2= 2.19D-16
 OrtVc1:  IOff=     0 IS=    31 I=    40 K1=T IndO=    40 NNew1=    10 Dot= 1.00D+00 DotN= 1.00D+00 ElMax1= 2.82D-01 ElMax1N= 2.82D-01
 Root      1 not converged, maximum delta is    0.001437492445010
 Root      2 not converged, maximum delta is    0.001125476600019
 Root      3 has converged.
 Root      4 has converged.
 Excitation Energies [eV] at current iteration:
 Root      1 :     7.732763483720557   Change is   -0.000348430042227
 Root      2 :     9.250593924762791   Change is   -0.000115982009846
 Root      3 :     9.469041757471985   Change is   -0.000014803195439
 Root      4 :     9.583320923498958   Change is   -0.000081293824357
 OrtVec:  Test1= 1.00D+00 Test2= 1.00D-06
 OrtVec:  NIn=      2 NOld=     40 NBNew=      2 NBOld=     42
 OrtVc1:  Ph=1 IOff=     0 IPass= 1 DotMx1= 1.83D-04
 OrtVc1:  Ph=1 IOff=     0 IPass= 2 DotMx1= 5.93D-20
 OrtVc1:  Ph=2 IOff=     0 IPass= 1 DotMx1= 0.00D+00
 OrtVc1:  IOff=     0 IS=     1 I=     1 K1=T IndO=     1 NNew1=     1 Dot= 1.69D-07 DotN= 1.69D-07 ElMax1= 1.44D-04 ElMax1N= 1.44D-04
 OrtVc1:  Ph=3 IOff=     0 NNewB=     0 IAdd=     2 IPass= 1 DotMx2= 3.90D-08
 OrtVc1:  Ph=3 IOff=     0 NNewB=     0 IAdd=     2 IPass= 2 DotMx2= 1.19D-23
 OrtVc1:  IOff=     0 IS=     1 I=     2 K1=T IndO=     2 NNew1=     2 Dot= 1.02D-07 DotN= 1.02D-07 ElMax1= 1.03D-04 ElMax1N= 1.03D-04
 Iteration     5 Dimension    42 NMult    42
 OrtVec:  Test1= 1.00D+00 Test2= 1.00D-06
 OrtVec:  NIn=     42 NOld=      0 NBNew=     42 NBOld=     42
 OrtVc1:  Ph=1 IOff=     0 IPass= 1 DotMx1= 0.00D+00
 OrtVc1:  Ph=2 IOff=     0 IPass= 1 DotMx1= 0.00D+00
 OrtVc1:  IOff=     0 IS=     1 I=     1 K1=T IndO=     1 NNew1=     1 Dot= 1.00D+00 DotN= 1.00D+00 ElMax1= 6.77D-01 ElMax1N= 6.77D-01
 OrtVc1:  Ph=3 IOff=     0 NNewB=     0 IAdd=     2 IPass= 1 DotMx2= 2.86D-05
 OrtVc1:  Ph=3 IOff=     0 NNewB=     0 IAdd=     2 IPass= 2 DotMx2= 1.33D-20
 OrtVc1:  IOff=     0 IS=     1 I=     2 K1=T IndO=     2 NNew1=     2 Dot= 1.00D+00 DotN= 1.00D+00 ElMax1= 6.22D-01 ElMax1N= 6.22D-01
 OrtVc1:  Ph=3 IOff=     0 NNewB=     0 IAdd=     3 IPass= 1 DotMx2= 1.99D-05
 OrtVc1:  Ph=3 IOff=     0 NNewB=     0 IAdd=     3 IPass= 2 DotMx2= 1.98D-19
 OrtVc1:  IOff=     0 IS=     1 I=     3 K1=T IndO=     3 NNew1=     3 Dot= 1.00D+00 DotN= 1.00D+00 ElMax1= 6.58D-01 ElMax1N= 6.58D-01
 OrtVc1:  Ph=3 IOff=     0 NNewB=     0 IAdd=     4 IPass= 1 DotMx2= 1.40D-05
 OrtVc1:  Ph=3 IOff=     0 NNewB=     0 IAdd=     4 IPass= 2 DotMx2= 3.59D-18
 OrtVc1:  IOff=     0 IS=     1 I=     4 K1=T IndO=     4 NNew1=     4 Dot= 1.00D+00 DotN= 1.00D+00 ElMax1= 6.66D-01 ElMax1N= 6.66D-01
 OrtVc1:  Ph=3 IOff=     0 NNewB=     0 IAdd=     5 IPass= 1 DotMx2= 3.84D-05
 OrtVc1:  Ph=3 IOff=     0 NNewB=     0 IAdd=     5 IPass= 2 DotMx2= 1.41D-17
 OrtVc1:  IOff=     0 IS=     1 I=     5 K1=T IndO=     5 NNew1=     5 Dot= 1.00D+00 DotN= 1.00D+00 ElMax1= 6.27D-01 ElMax1N= 6.27D-01
 OrtVc1:  Ph=3 IOff=     0 NNewB=     0 IAdd=     6 IPass= 1 DotMx2= 1.45D-04
 OrtVc1:  Ph=3 IOff=     0 NNewB=     0 IAdd=     6 IPass= 2 DotMx2= 5.14D-17
 OrtVc1:  IOff=     0 IS=     1 I=     6 K1=T IndO=     6 NNew1=     6 Dot= 1.00D+00 DotN= 1.00D+00 ElMax1= 5.25D-01 ElMax1N= 5.25D-01
 OrtVc1:  Ph=3 IOff=     0 NNewB=     0 IAdd=     7 IPass= 1 DotMx2= 5.41D-05
 OrtVc1:  Ph=3 IOff=     0 NNewB=     0 IAdd=     7 IPass= 2 DotMx2= 7.61D-18
 OrtVc1:  IOff=     0 IS=     1 I=     7 K1=T IndO=     7 NNew1=     7 Dot= 1.00D+00 DotN= 1.00D+00 ElMax1= 5.41D-01 ElMax1N= 5.41D-01
 OrtVc1:  Ph=3 IOff=     0 NNewB=     0 IAdd=     8 IPass= 1 DotMx2= 5.56D-05
 OrtVc1:  Ph=3 IOff=     0 NNewB=     0 IAdd=     8 IPass= 2 DotMx2= 4.82D-19
 OrtVc1:  IOff=     0 IS=     1 I=     8 K1=T IndO=     8 NNew1=     8 Dot= 1.00D+00 DotN= 1.00D+00 ElMax1= 6.66D-01 ElMax1N= 6.66D-01
 OrtVc1:  Ph=3 IOff=     0 NNewB=     0 IAdd=     9 IPass= 1 DotMx2= 6.88D-05
 OrtVc1:  Ph=3 IOff=     0 NNewB=     0 IAdd=     9 IPass= 2 DotMx2= 1.71D-16
 OrtVc1:  IOff=     0 IS=     1 I=     9 K1=T IndO=     9 NNew1=     9 Dot= 1.00D+00 DotN= 1.00D+00 ElMax1= 5.36D-01 ElMax1N= 5.36D-01
 OrtVc1:  Ph=3 IOff=     0 NNewB=     0 IAdd=    10 IPass= 1 DotMx2= 9.77D-05
 OrtVc1:  Ph=3 IOff=     0 NNewB=     0 IAdd=    10 IPass= 2 DotMx2= 1.07D-16
 OrtVc1:  IOff=     0 IS=     1 I=    10 K1=T IndO=    10 NNew1=    10 Dot= 1.00D+00 DotN= 1.00D+00 ElMax1= 5.95D-01 ElMax1N= 5.95D-01
 OrtVc1:  Ph=3 IOff=     0 NNewB=     0 IAdd=    11 IPass= 1 DotMx2= 1.21D-04
 OrtVc1:  Ph=3 IOff=     0 NNewB=     0 IAdd=    11 IPass= 2 DotMx2= 3.41D-17
 OrtVc1:  IOff=     0 IS=     1 I=    11 K1=T IndO=    11 NNew1=    11 Dot= 1.00D+00 DotN= 1.00D+00 ElMax1= 5.49D-01 ElMax1N= 5.49D-01
 OrtVc1:  Ph=3 IOff=     0 NNewB=     0 IAdd=    12 IPass= 1 DotMx2= 1.08D-04
 OrtVc1:  Ph=3 IOff=     0 NNewB=     0 IAdd=    12 IPass= 2 DotMx2= 1.82D-17
 OrtVc1:  IOff=     0 IS=     1 I=    12 K1=T IndO=    12 NNew1=    12 Dot= 1.00D+00 DotN= 1.00D+00 ElMax1= 5.33D-01 ElMax1N= 5.33D-01
 OrtVc1:  Ph=3 IOff=     0 NNewB=     0 IAdd=    13 IPass= 1 DotMx2= 1.17D-04
 OrtVc1:  Ph=3 IOff=     0 NNewB=     0 IAdd=    13 IPass= 2 DotMx2= 2.62D-17
 OrtVc1:  IOff=     0 IS=     1 I=    13 K1=T IndO=    13 NNew1=    13 Dot= 1.00D+00 DotN= 1.00D+00 ElMax1= 6.90D-01 ElMax1N= 6.90D-01
 OrtVc1:  Ph=3 IOff=     0 NNewB=     0 IAdd=    14 IPass= 1 DotMx2= 1.10D-04
 OrtVc1:  Ph=3 IOff=     0 NNewB=     0 IAdd=    14 IPass= 2 DotMx2= 4.35D-17
 OrtVc1:  IOff=     0 IS=     1 I=    14 K1=T IndO=    14 NNew1=    14 Dot= 1.00D+00 DotN= 1.00D+00 ElMax1= 5.46D-01 ElMax1N= 5.46D-01
 OrtVc1:  Ph=3 IOff=     0 NNewB=     0 IAdd=    15 IPass= 1 DotMx2= 1.57D-04
 OrtVc1:  Ph=3 IOff=     0 NNewB=     0 IAdd=    15 IPass= 2 DotMx2= 4.48D-17
 OrtVc1:  IOff=     0 IS=     1 I=    15 K1=T IndO=    15 NNew1=    15 Dot= 1.00D+00 DotN= 1.00D+00 ElMax1= 5.58D-01 ElMax1N= 5.58D-01
 OrtVc1:  Ph=3 IOff=     0 NNewB=     0 IAdd=    16 IPass= 1 DotMx2= 1.34D-04
 OrtVc1:  Ph=3 IOff=     0 NNewB=     0 IAdd=    16 IPass= 2 DotMx2= 5.04D-17
 OrtVc1:  IOff=     0 IS=     1 I=    16 K1=T IndO=    16 NNew1=    16 Dot= 1.00D+00 DotN= 1.00D+00 ElMax1= 5.29D-01 ElMax1N= 5.29D-01
 OrtVc1:  Ph=3 IOff=     0 NNewB=     0 IAdd=    17 IPass= 1 DotMx2= 1.64D-04
 OrtVc1:  Ph=3 IOff=     0 NNewB=     0 IAdd=    17 IPass= 2 DotMx2= 2.73D-17
 OrtVc1:  IOff=     0 IS=     1 I=    17 K1=T IndO=    17 NNew1=    17 Dot= 1.00D+00 DotN= 1.00D+00 ElMax1= 4.47D-01 ElMax1N= 4.47D-01
 OrtVc1:  Ph=3 IOff=     0 NNewB=     0 IAdd=    18 IPass= 1 DotMx2= 1.37D-04
 OrtVc1:  Ph=3 IOff=     0 NNewB=     0 IAdd=    18 IPass= 2 DotMx2= 2.23D-16
 OrtVc1:  IOff=     0 IS=     1 I=    18 K1=T IndO=    18 NNew1=    18 Dot= 1.00D+00 DotN= 1.00D+00 ElMax1= 4.66D-01 ElMax1N= 4.66D-01
 OrtVc1:  Ph=3 IOff=     0 NNewB=     0 IAdd=    19 IPass= 1 DotMx2= 1.21D-04
 OrtVc1:  Ph=3 IOff=     0 NNewB=     0 IAdd=    19 IPass= 2 DotMx2= 2.67D-17
 OrtVc1:  IOff=     0 IS=     1 I=    19 K1=T IndO=    19 NNew1=    19 Dot= 1.00D+00 DotN= 1.00D+00 ElMax1= 3.85D-01 ElMax1N= 3.85D-01
 OrtVc1:  Ph=3 IOff=     0 NNewB=     0 IAdd=    20 IPass= 1 DotMx2= 1.39D-04
 OrtVc1:  Ph=3 IOff=     0 NNewB=     0 IAdd=    20 IPass= 2 DotMx2= 2.37D-17
 OrtVc1:  IOff=     0 IS=     1 I=    20 K1=T IndO=    20 NNew1=    20 Dot= 1.00D+00 DotN= 1.00D+00 ElMax1= 4.67D-01 ElMax1N= 4.67D-01
 OrtVc1:  Ph=3 IOff=     0 NNewB=     0 IAdd=    21 IPass= 1 DotMx2= 1.71D-04
 OrtVc1:  Ph=3 IOff=     0 NNewB=     0 IAdd=    21 IPass= 2 DotMx2= 6.27D-17
 OrtVc1:  IOff=     0 IS=     1 I=    21 K1=T IndO=    21 NNew1=    21 Dot= 1.00D+00 DotN= 1.00D+00 ElMax1= 4.60D-01 ElMax1N= 4.60D-01
 OrtVc1:  Ph=3 IOff=     0 NNewB=     0 IAdd=    22 IPass= 1 DotMx2= 1.07D-04
 OrtVc1:  Ph=3 IOff=     0 NNewB=     0 IAdd=    22 IPass= 2 DotMx2= 7.83D-17
 OrtVc1:  IOff=     0 IS=     1 I=    22 K1=T IndO=    22 NNew1=    22 Dot= 1.00D+00 DotN= 1.00D+00 ElMax1= 4.24D-01 ElMax1N= 4.24D-01
[...]
     61  0.127815D-02 -0.308374D-02  0.140323D-02  0.672176D-04  0.597668D-03
     62  0.324772D-04 -0.207324D-02 -0.246956D-02 -0.318558D-04 -0.283101D-03
     63  0.126361D-02  0.199825D-02  0.127824D-02  0.252636D-04  0.230319D-03
     64  0.282011D-02 -0.258582D-02 -0.145782D-02  0.176935D-04  0.157217D-03
     65  0.123572D-03  0.233105D-03  0.933335D-04  0.102064D-05  0.923822D-05
     66  0.283402D-04  0.227052D-03  0.252804D-04 -0.156771D-05 -0.140717D-04
     67  0.323005D-04  0.259539D-03  0.603601D-04  0.000000D+00 -0.285335D-05
     68 -0.123264D-05 -0.659739D-04 -0.377707D-04  0.000000D+00  0.251096D-05
     69 -0.495616D-04 -0.462083D-04 -0.721680D-04 -0.130902D-05 -0.117418D-04
     70  0.462461D-04 -0.207532D-05 -0.211764D-04  0.000000D+00 -0.169702D-05
     71 -0.308643D-03 -0.321803D-04 -0.140718D-03 -0.266659D-05 -0.243837D-04
     72  0.104130D-02  0.249834D-02  0.353723D-02  0.419254D-04  0.372766D-03
     73  0.184824D-03  0.663771D-04  0.864333D-04  0.335157D-05  0.304455D-04
     74  0.102586D-02 -0.266975D-02 -0.365922D-02 -0.457541D-04 -0.412881D-03
     75  0.847710D-04  0.325786D-03  0.187725D-03  0.338354D-05  0.307228D-04
     76 -0.359014D-02  0.259194D-02  0.975999D-03 -0.452259D-04 -0.408110D-03
               41            42            43            44            45 
     41  0.180058D-05
     42  0.299779D-05  0.733172D-05
     43  0.000000D+00 -0.176006D-05  0.105126D-05
     44 -0.101055D-03 -0.183933D-03  0.603863D-04  0.101099D-01
     45 -0.594359D-04 -0.105556D-03  0.304905D-04  0.486819D-02  0.250958D-02
     46 -0.497971D-04 -0.114007D-03  0.293983D-04  0.407192D-02  0.206790D-02
     47  0.299723D-04  0.617298D-04 -0.261324D-04 -0.284993D-02 -0.139998D-02
     48 -0.256560D-05 -0.597355D-05  0.156443D-05  0.164582D-03  0.931330D-04
     49  0.204073D-05  0.345972D-05 -0.122539D-05 -0.242924D-03 -0.109758D-03
     50  0.000000D+00 -0.128248D-05  0.000000D+00 -0.484735D-04 -0.140602D-04
     51  0.000000D+00  0.000000D+00  0.000000D+00 -0.167227D-04 -0.514711D-05
     52  0.244740D-05  0.459353D-05 -0.140950D-05 -0.210032D-03 -0.105936D-03
     53  0.000000D+00  0.000000D+00  0.000000D+00  0.624833D-05  0.192437D-05
     54 -0.589410D-05 -0.141565D-04  0.413773D-05  0.524702D-03  0.259942D-03
     55  0.736136D-04  0.156319D-03 -0.383266D-04 -0.686456D-02 -0.334902D-02
     56  0.000000D+00 -0.120437D-05  0.000000D+00  0.672233D-04  0.314846D-04
     57 -0.474264D-05 -0.108707D-04  0.288090D-05  0.597612D-03  0.279741D-03
     58  0.119282D-05  0.293734D-05  0.000000D+00 -0.107253D-03 -0.518515D-04
     59 -0.288026D-05 -0.486695D-05  0.168683D-05  0.200659D-03  0.104984D-03
     60  0.000000D+00 -0.160951D-05  0.000000D+00  0.577984D-04  0.316287D-04
     61  0.104380D-03  0.201140D-03 -0.622186D-04 -0.996993D-02 -0.491658D-02
     62 -0.510051D-04 -0.106333D-03  0.342220D-04  0.497149D-02  0.239942D-02
     63  0.562854D-04  0.979590D-04 -0.330469D-04 -0.411503D-02 -0.218590D-02
     64  0.320697D-04  0.592101D-04 -0.124876D-04 -0.276539D-02 -0.139509D-02
     65  0.242159D-05  0.441114D-05 -0.148206D-05 -0.177042D-03 -0.914309D-04
     66 -0.243411D-05 -0.467007D-05  0.145084D-05  0.230287D-03  0.116354D-03
     67  0.000000D+00  0.000000D+00  0.000000D+00  0.379002D-04  0.153136D-04
     68  0.000000D+00  0.000000D+00  0.000000D+00 -0.170277D-04 -0.536036D-05
     69 -0.237172D-05 -0.467640D-05  0.136991D-05  0.209443D-03  0.104586D-03
     70  0.000000D+00  0.000000D+00  0.000000D+00  0.121075D-04  0.357547D-05
     71 -0.643740D-05 -0.141303D-04  0.315923D-05  0.521959D-03  0.265074D-03
     72  0.700287D-04  0.158365D-03 -0.471352D-04 -0.695678D-02 -0.331749D-02
     73  0.716534D-05  0.120103D-04 -0.390253D-05 -0.527371D-03 -0.281026D-03
     74 -0.838966D-04 -0.148335D-03  0.550379D-04  0.690839D-02  0.356126D-02
     75  0.691750D-05  0.120775D-04 -0.437999D-05 -0.530991D-03 -0.277556D-03
     76 -0.876498D-04 -0.146668D-03  0.460874D-04  0.682583D-02  0.359267D-02
               46            47            48            49            50 
     46  0.213233D-02
     47 -0.121019D-02  0.938149D-03
     48  0.949866D-04 -0.547899D-04  0.499120D-05
     49 -0.926386D-04  0.642908D-04 -0.315295D-05  0.633266D-05
     50  0.167690D-05  0.860401D-05  0.000000D+00  0.172006D-05  0.146981D-05
     51 -0.264568D-05  0.329666D-05  0.000000D+00  0.000000D+00  0.000000D+00
     52 -0.915980D-04  0.617385D-04 -0.402435D-05  0.480371D-05  0.000000D+00
     53  0.102542D-05  0.000000D+00  0.000000D+00  0.000000D+00  0.000000D+00
     54  0.269121D-03 -0.159511D-03  0.118297D-04 -0.120932D-04  0.000000D+00
     55 -0.323401D-02  0.187020D-02 -0.132491D-03  0.165061D-03  0.161635D-04
     56  0.252986D-04 -0.184438D-04  0.101367D-05 -0.156839D-05  0.000000D+00
     57  0.230607D-03 -0.163895D-03  0.917726D-05 -0.140755D-04 -0.275614D-05
     58 -0.574368D-04  0.341207D-04 -0.247230D-05  0.250393D-05  0.000000D+00
     59  0.979041D-04 -0.613671D-04  0.440846D-05 -0.466388D-05  0.000000D+00
     60  0.314374D-04 -0.119455D-04  0.140822D-05 -0.134861D-05  0.000000D+00
     61 -0.412132D-02  0.287728D-02 -0.176523D-03  0.230443D-03  0.367954D-04
     62  0.221166D-02 -0.146734D-02  0.922963D-04 -0.117707D-03 -0.151021D-04
     63 -0.183894D-02  0.127701D-02 -0.877000D-04  0.900610D-04  0.750544D-05
     64 -0.123253D-02  0.708078D-03 -0.517180D-04  0.655250D-04  0.873215D-05
     65 -0.878545D-04  0.538635D-04 -0.393944D-05  0.412012D-05  0.000000D+00
     66  0.901130D-04 -0.680487D-04  0.410373D-05 -0.505849D-05  0.000000D+00
     67  0.775159D-05 -0.935295D-05  0.000000D+00  0.000000D+00  0.000000D+00
     68  0.295494D-05  0.283393D-05  0.000000D+00  0.000000D+00  0.000000D+00
     69  0.934657D-04 -0.609528D-04  0.406115D-05 -0.483781D-05  0.000000D+00
     70 -0.160533D-05 -0.261996D-05  0.000000D+00  0.000000D+00  0.000000D+00
     71  0.268808D-03 -0.147834D-03  0.117451D-04 -0.120339D-04  0.000000D+00
     72 -0.327746D-02  0.203395D-02 -0.134596D-03  0.167234D-03  0.165454D-04
     73 -0.228589D-03  0.158204D-03 -0.108790D-04  0.115529D-04  0.123889D-05
     74  0.284985D-02 -0.216705D-02  0.133420D-03 -0.151975D-03 -0.204446D-04
     75 -0.229774D-03  0.168176D-03 -0.108910D-04  0.116509D-04  0.123488D-05
     76  0.281523D-02 -0.201352D-02  0.132383D-03 -0.150196D-03 -0.207829D-04
               51            52            53            54            55 
     51  0.000000D+00
     52  0.000000D+00  0.457533D-05
     53  0.000000D+00  0.000000D+00  0.000000D+00
     54  0.000000D+00 -0.116149D-04  0.000000D+00  0.349821D-04
     55  0.904061D-05  0.146475D-03 -0.542060D-05 -0.413367D-03  0.527871D-02
     56  0.000000D+00 -0.131736D-05  0.000000D+00  0.337882D-05 -0.451318D-04
     57 -0.277817D-05 -0.118127D-04  0.125899D-05  0.306771D-04 -0.407211D-03
     58  0.000000D+00  0.243616D-05  0.000000D+00 -0.731353D-05  0.845533D-04
     59  0.000000D+00 -0.467248D-05  0.000000D+00  0.120170D-04 -0.145887D-03
     60  0.000000D+00 -0.127851D-05  0.000000D+00  0.369082D-05 -0.514903D-04
     61  0.197210D-04  0.210328D-03 -0.790480D-05 -0.530213D-03  0.681014D-02
     62 -0.641447D-05 -0.106109D-03  0.211966D-05  0.285300D-03 -0.354918D-02
     63 -0.262897D-05  0.935613D-04  0.201084D-05 -0.228875D-03  0.280254D-02
     64  0.330291D-05  0.587659D-04 -0.169332D-05 -0.152986D-03  0.206181D-02
     65  0.000000D+00  0.407465D-05  0.000000D+00 -0.109131D-04  0.131742D-03
     66  0.000000D+00 -0.485448D-05  0.000000D+00  0.116182D-04 -0.149676D-03
     67  0.000000D+00  0.000000D+00  0.000000D+00  0.130261D-05 -0.208092D-04
     68  0.000000D+00  0.000000D+00  0.000000D+00  0.000000D+00  0.277334D-05
     69  0.000000D+00 -0.453550D-05  0.000000D+00  0.118928D-04 -0.149618D-03
     70  0.000000D+00  0.000000D+00  0.000000D+00  0.000000D+00 -0.272916D-05
     71  0.000000D+00 -0.116300D-04  0.000000D+00  0.332466D-04 -0.413139D-03
     72  0.107132D-04  0.148397D-03 -0.272492D-05 -0.419729D-03  0.518444D-02
     73  0.000000D+00  0.118724D-04  0.000000D+00 -0.283336D-04  0.357190D-03
     74 -0.406630D-05 -0.152265D-03  0.000000D+00  0.364139D-03 -0.448096D-02
     75  0.000000D+00  0.119671D-04  0.000000D+00 -0.288822D-04  0.350754D-03
     76 -0.427309D-05 -0.150103D-03  0.000000D+00  0.350895D-03 -0.450729D-02
               56            57            58            59            60 
     56  0.000000D+00
     57  0.593923D-05  0.505406D-04
     58  0.000000D+00 -0.498555D-05  0.185880D-05
     59  0.000000D+00  0.518099D-05 -0.305088D-05  0.731541D-05
     60  0.000000D+00  0.262977D-05  0.000000D+00  0.166954D-05  0.000000D+00
     61 -0.723005D-04 -0.634585D-03  0.104160D-03 -0.183798D-03 -0.559673D-04
     62  0.320161D-04  0.287502D-03 -0.614903D-04  0.106629D-03  0.287668D-04
     63 -0.201159D-04 -0.185328D-03  0.509353D-04 -0.113802D-03 -0.276280D-04
     64 -0.178127D-04 -0.159979D-03  0.295884D-04 -0.592751D-04 -0.242083D-04
     65  0.000000D+00 -0.577870D-05  0.261192D-05 -0.595925D-05 -0.149216D-05
     66  0.191997D-05  0.164005D-04 -0.211037D-05  0.345370D-05  0.112369D-05
     67  0.000000D+00  0.658673D-05  0.000000D+00 -0.128123D-05  0.000000D+00
     68  0.000000D+00 -0.123435D-05  0.000000D+00  0.000000D+00  0.000000D+00
     69  0.134016D-05  0.120078D-04 -0.250575D-05  0.458594D-05  0.131912D-05
     70  0.000000D+00  0.000000D+00  0.000000D+00  0.000000D+00  0.000000D+00
     71  0.335382D-05  0.304602D-04 -0.704097D-05  0.120050D-04  0.415931D-05
     72 -0.457117D-04 -0.412432D-03  0.904552D-04 -0.148003D-03 -0.438468D-04
     73 -0.266922D-05 -0.244046D-04  0.603859D-05 -0.141115D-04 -0.390012D-05
     74  0.420125D-04  0.373489D-03 -0.768796D-04  0.158359D-03  0.359291D-04
     75 -0.270639D-05 -0.247259D-04  0.661436D-05 -0.141678D-04 -0.294634D-05
     76  0.415430D-04  0.369263D-03 -0.712384D-04  0.156538D-03  0.435616D-04
               61            62            63            64            65 
     61  0.101237D-01
     62 -0.493038D-02  0.256749D-02
     63  0.407188D-02 -0.209129D-02  0.212958D-02
     64  0.274189D-02 -0.136215D-02  0.116197D-02  0.875718D-03
     65  0.165364D-03 -0.944622D-04  0.949336D-04  0.528913D-04  0.499037D-05
     66 -0.243064D-03  0.111117D-03 -0.925613D-04 -0.617463D-04 -0.316743D-05
     67 -0.495605D-04  0.147254D-04  0.152024D-05 -0.852665D-05  0.000000D+00
     68  0.140662D-04 -0.419431D-05  0.233703D-05  0.258276D-05  0.000000D+00
     69 -0.209477D-03  0.106863D-03 -0.914094D-04 -0.592382D-04 -0.403009D-05
     70 -0.103761D-04  0.353065D-05 -0.140102D-05 -0.147277D-05  0.000000D+00
     71 -0.527751D-03  0.278822D-03 -0.228547D-03 -0.161420D-03 -0.108637D-04
     72  0.690370D-02 -0.366917D-02  0.284493D-02  0.196009D-02  0.134172D-03
     73  0.522410D-03 -0.262159D-03  0.268534D-03  0.152779D-03  0.118297D-04
     74 -0.697170D-02  0.344263D-02 -0.327914D-02 -0.182131D-02 -0.134777D-03
     75  0.526276D-03 -0.269902D-03  0.269633D-03  0.142754D-03  0.117791D-04
     76 -0.689027D-02  0.332204D-02 -0.324115D-02 -0.193503D-02 -0.133263D-03
               66            67            68            69            70 
     66  0.633120D-05
     67  0.174280D-05  0.149531D-05
     68  0.000000D+00  0.000000D+00  0.000000D+00
     69  0.478772D-05  0.000000D+00  0.000000D+00  0.454934D-05
     70  0.000000D+00  0.000000D+00  0.000000D+00  0.000000D+00  0.000000D+00
     71  0.115543D-04  0.124406D-05  0.000000D+00  0.118700D-04  0.000000D+00
     72 -0.151769D-03 -0.216017D-04  0.306767D-05 -0.151256D-03 -0.239756D-05
     73 -0.120313D-04  0.000000D+00  0.000000D+00 -0.115574D-04  0.000000D+00
     74  0.167442D-03  0.168445D-04 -0.799573D-05  0.148402D-03  0.723065D-05
     75 -0.121250D-04  0.000000D+00  0.000000D+00 -0.116782D-04  0.000000D+00
     76  0.165550D-03  0.169007D-04 -0.944690D-05  0.146479D-03  0.437794D-05
               71            72            73            74            75 
     71  0.348740D-04
     72 -0.417784D-03  0.541686D-02
     73 -0.286640D-04  0.353764D-03  0.348460D-04
     74  0.354314D-03 -0.463089D-02 -0.418064D-03  0.542951D-02
     75 -0.284265D-04  0.364835D-03  0.333230D-04 -0.421416D-03  0.351519D-04
     76  0.358777D-03 -0.449357D-02 -0.414046D-03  0.520595D-02 -0.415745D-03
               76 
     76  0.531035D-02
 
 Excited state symmetry could not be determined.
 Excited State   2:      Singlet-?Sym    9.2506 eV  134.03 nm  f=0.1112  <S**2>=0.000
       8 -> 10        -0.62221
       8 -> 12         0.32118
 
 Excited state symmetry could not be determined.
 Excited State   3:      Singlet-?Sym    9.4690 eV  130.94 nm  f=0.0013  <S**2>=0.000
       7 ->  9         0.65775
       7 -> 11        -0.13943
       8 -> 13         0.11870
       8 -> 14         0.15730
 
 Excited state symmetry could not be determined.
 Excited State   4:      Singlet-?Sym    9.5833 eV  129.37 nm  f=0.0108  <S**2>=0.000
       6 ->  9         0.66600
       6 -> 11        -0.15682
 SavETr:  write IOETrn=   770 NScale= 10 NData=  16 NLR=1 LETran=      82.
 Leave Link  914 at Sun Oct 21 15:39:04 2012, MaxMem=  209715200 cpu:       0.9
 (Enter /usr/local/gaussian-2009-B.01/g09/l601.exe)
 Copying SCF densities to generalized density rwf, IOpCl= 0 IROHF=0.

 **********************************************************************

            Population analysis using the SCF density.

 **********************************************************************

 Alpha  occ. eigenvalues --  -11.24076 -11.23958  -1.01202  -0.80141  -0.63702
 Alpha  occ. eigenvalues --   -0.57160  -0.51950  -0.35566
 Alpha virt. eigenvalues --    0.14956   0.15545   0.25120   0.26377   0.28140
 Alpha virt. eigenvalues --    0.30445   0.31042   0.34497   0.39226   0.40457
 Alpha virt. eigenvalues --    0.44955   0.46914   0.56360   0.58382   0.60857
 Alpha virt. eigenvalues --    0.62567   0.70196   0.74959   0.76002   0.81630
 Alpha virt. eigenvalues --    0.86738   0.89519   0.95201   0.97225   1.13738
 Alpha virt. eigenvalues --    1.15173   1.20620   1.21300   1.33317   1.41633
 Alpha virt. eigenvalues --    1.61914   1.72300   1.83157   1.93032   1.97451
 Alpha virt. eigenvalues --    2.01548   2.13493   2.19478   2.21450   2.32767
 Alpha virt. eigenvalues --    2.34797   2.42483   2.49215   2.56592   2.67279
 Alpha virt. eigenvalues --    2.67340   2.68528   2.78449   2.86799   2.95124
 Alpha virt. eigenvalues --    2.99429   2.99864   3.00631   3.02305   3.23924
 Alpha virt. eigenvalues --    3.40572   3.47299   3.53837   3.62913   3.79718
 Alpha virt. eigenvalues --    4.09021   4.19952   4.26118   4.57556   4.74218
 Alpha virt. eigenvalues --    5.26838  23.67309  23.82370
          Condensed to atoms (all electrons):
              1          2          3          4          5          6
     1  C    5.022913   0.393421   0.615192   0.393421  -0.036630  -0.036589
     2  H    0.393421   0.487430  -0.036584  -0.028606   0.002487  -0.002329
     3  C    0.615192  -0.036584   5.022916  -0.036627   0.393436   0.393402
     4  H    0.393421  -0.028606  -0.036627   0.487523  -0.002338   0.002487
     5  H   -0.036630   0.002487   0.393436  -0.002338   0.487463  -0.028588
     6  H   -0.036589  -0.002329   0.393402   0.002487  -0.028588   0.487436
     7  C    0.001312  -0.000242   0.002083  -0.000246   0.000069   0.000067
     8  H    0.001511   0.000177   0.000399  -0.000024   0.000005  -0.000006
     9  C    0.002082   0.000067   0.001307   0.000069  -0.000247  -0.000241
    10  H    0.001520  -0.000025   0.000401   0.000180  -0.000006   0.000005
    11  H    0.000402   0.000005   0.001525  -0.000006   0.000181  -0.000025
    12  H    0.000399  -0.000006   0.001509   0.000005  -0.000025   0.000177
              7          8          9         10         11         12
     1  C    0.001312   0.001511   0.002082   0.001520   0.000402   0.000399
     2  H   -0.000242   0.000177   0.000067  -0.000025   0.000005  -0.000006
     3  C    0.002083   0.000399   0.001307   0.000401   0.001525   0.001509
     4  H   -0.000246  -0.000024   0.000069   0.000180  -0.000006   0.000005
     5  H    0.000069   0.000005  -0.000247  -0.000006   0.000181  -0.000025
     6  H    0.000067  -0.000006  -0.000241   0.000005  -0.000025   0.000177
     7  C    0.000692  -0.000213  -0.000143  -0.000215   0.000098   0.000097
     8  H   -0.000213   0.000706   0.000097   0.000227   0.000045   0.000101
     9  C   -0.000143   0.000097   0.000692   0.000098  -0.000216  -0.000213
    10  H   -0.000215   0.000227   0.000098   0.000710   0.000102   0.000045
    11  H    0.000098   0.000045  -0.000216   0.000102   0.000712   0.000227
    12  H    0.000097   0.000101  -0.000213   0.000045   0.000227   0.000705
 Mulliken atomic charges:
              1
     1  C   -0.358954
     2  H    0.184204
     3  C   -0.358960
     4  H    0.184163
     5  H    0.184194
     6  H    0.184204
     7  C   -0.003361
     8  H   -0.003025
     9  C   -0.003352
    10  H   -0.003042
    11  H   -0.003050
    12  H   -0.003021
 Sum of Mulliken atomic charges =   0.00000
 Mulliken charges with hydrogens summed into heavy atoms:
              1
     1  C    0.009413
     3  C    0.009438
     7  C   -0.009427
     9  C   -0.009424
 Sum of Mulliken charges with hydrogens summed into heavy atoms =   0.00000
 Electronic spatial extent (au):  <R**2>=            111.4975
 Charge=              0.0000 electrons
 Dipole moment (field-independent basis, Debye):
    X=             -0.0001    Y=             -0.5278    Z=             -0.0005  Tot=              0.5278
 Quadrupole moment (field-independent basis, Debye-Ang):
   XX=            -11.9944   YY=            -15.9914   ZZ=            -12.1715
   XY=             -0.3072   XZ=             -0.1509   YZ=              0.1782
 Traceless Quadrupole moment (field-independent basis, Debye-Ang):
   XX=              1.3914   YY=             -2.6056   ZZ=              1.2143
   XY=             -0.3072   XZ=             -0.1509   YZ=              0.1782
 Octapole moment (field-independent basis, Debye-Ang**2):
  XXX=            -20.8033  YYY=             -0.4809  ZZZ=             12.6732  XYY=             -9.2455
  XXY=             -0.7355  XXZ=              3.9893  XZZ=             -6.9345  YZZ=             -0.4424
  YYZ=              5.5519  XYZ=              0.2490
 Hexadecapole moment (field-independent basis, Debye-Ang**3):
 XXXX=            -80.1640 YYYY=            -19.9460 ZZZZ=            -42.3145 XXXY=             -1.0737
 XXXZ=             18.3458 YYYX=             -0.2749 YYYZ=              0.1759 ZZZX=             15.1326
 ZZZY=              0.4186 XXYY=            -19.3373 XXZZ=            -21.5907 YYZZ=            -11.8910
 XXYZ=              0.4219 YYXZ=              6.6221 ZZXY=             -0.3531
 N-N= 3.261348856892D+01 E-N=-2.462573071997D+02  KE= 7.774152325814D+01
 Leave Link  601 at Sun Oct 21 15:39:04 2012, MaxMem=  209715200 cpu:       0.0
 (Enter /usr/local/gaussian-2009-B.01/g09/l9999.exe)

 Test job not archived.
 1\1\ WCSS.WROC.PL-SUPERNOVA-WN617\SP\RCIS-FC\6-31G(d)\C4H8\BLASIAK\21-
 Oct-2012\0\\#p CIS(NStates=4,Singlets)/6-31G(d) IOP(9/33=2) nosymm\\CI
 S/6-31G(d) calculations of the transition density matrix for ethylene\
 \0,1\C,0,-0.031871,-0.000007,0.001312\H,0,-0.053949,-0.102551,1.069139
 \C,0,1.188324,0.000003,-0.695389\H,0,-0.962724,-0.100044,-0.523396\H,0
 ,1.209504,-0.099215,-1.76369\H,0,2.11924,-0.102685,-0.171502\C,0,-0.03
 1871,3.000007,0.001312\H,0,-0.053949,3.102551,1.069139\C,0,1.188324,2.
 999997,-0.695389\H,0,-0.962724,3.100044,-0.523396\H,0,1.209504,3.09921
 5,-1.76369\H,0,2.11924,3.102685,-0.171502\\Version=EM64L-G09RevB.01\HF
 =-78.0219472\MP2=-78.2799109\RMSD=9.688e-09\PG=CS [X(C4H8)]\\@


 FROM THE ASHES OF OUR DESPAIR GROW THE FLOWERS OF TOMORROW.
 Job cpu time:  0 days  0 hours  0 minutes  4.8 seconds.
 File lengths (MBytes):  RWF=     40 Int=      0 D2E=      0 Chk=      2 Scr=      1
 Normal termination of Gaussian 09 at Sun Oct 21 15:39:04 2012.
