 Entering Gaussian System, Link 0=/usr/local/gaussian-2009-C.01_sse2/g09/g09
 Initial command:
 /usr/local/gaussian-2009-C.01_sse2/g09/l1.exe /lustre/scratch/tmp/pbs.2949908.nova/Gau-6105.inp -scrdir=/lustre/scratch/tmp/pbs.2949908.nova/
 Entering Link 1 = /usr/local/gaussian-2009-C.01_sse2/g09/l1.exe PID=      6106.
  
 Copyright (c) 1988,1990,1992,1993,1995,1998,2003,2009,2011,
            Gaussian, Inc.  All Rights Reserved.
  
 This is part of the Gaussian(R) 09 program.  It is based on
 the Gaussian(R) 03 system (copyright 2003, Gaussian, Inc.),
 the Gaussian(R) 98 system (copyright 1998, Gaussian, Inc.),
 the Gaussian(R) 94 system (copyright 1995, Gaussian, Inc.),
 the Gaussian 92(TM) system (copyright 1992, Gaussian, Inc.),
 the Gaussian 90(TM) system (copyright 1990, Gaussian, Inc.),
 the Gaussian 88(TM) system (copyright 1988, Gaussian, Inc.),
 the Gaussian 86(TM) system (copyright 1986, Carnegie Mellon
 University), and the Gaussian 82(TM) system (copyright 1983,
 Carnegie Mellon University). Gaussian is a federally registered
 trademark of Gaussian, Inc.
  
 This software contains proprietary and confidential information,
 including trade secrets, belonging to Gaussian, Inc.
  
 This software is provided under written license and may be
 used, copied, transmitted, or stored only in accord with that
 written license.
  
 The following legend is applicable only to US Government
 contracts under FAR:
  
                    RESTRICTED RIGHTS LEGEND
  
 Use, reproduction and disclosure by the US Government is
 subject to restrictions as set forth in subparagraphs (a)
 and (c) of the Commercial Computer Software - Restricted
 Rights clause in FAR 52.227-19.
  
 Gaussian, Inc.
 340 Quinnipiac St., Bldg. 40, Wallingford CT 06492
  
  
 ---------------------------------------------------------------
 Warning -- This program may not be used in any manner that
 competes with the business of Gaussian, Inc. or will provide
 assistance to any competitor of Gaussian, Inc.  The licensee
 of this program is prohibited from giving any competitor of
 Gaussian, Inc. access to this program.  By using this program,
 the user acknowledges that Gaussian, Inc. is engaged in the
 business of creating and licensing software in the field of
 computational chemistry and represents and warrants to the
 licensee that it is not a competitor of Gaussian, Inc. and that
 it will not use this program in any manner prohibited above.
 ---------------------------------------------------------------
  

 Cite this work as:
 Gaussian 09, Revision C.01,
 M. J. Frisch, G. W. Trucks, H. B. Schlegel, G. E. Scuseria, 
 M. A. Robb, J. R. Cheeseman, G. Scalmani, V. Barone, B. Mennucci, 
 G. A. Petersson, H. Nakatsuji, M. Caricato, X. Li, H. P. Hratchian, 
 A. F. Izmaylov, J. Bloino, G. Zheng, J. L. Sonnenberg, M. Hada, 
 M. Ehara, K. Toyota, R. Fukuda, J. Hasegawa, M. Ishida, T. Nakajima, 
 Y. Honda, O. Kitao, H. Nakai, T. Vreven, J. A. Montgomery, Jr., 
 J. E. Peralta, F. Ogliaro, M. Bearpark, J. J. Heyd, E. Brothers, 
 K. N. Kudin, V. N. Staroverov, T. Keith, R. Kobayashi, J. Normand, 
 K. Raghavachari, A. Rendell, J. C. Burant, S. S. Iyengar, J. Tomasi, 
 M. Cossi, N. Rega, J. M. Millam, M. Klene, J. E. Knox, J. B. Cross, 
 V. Bakken, C. Adamo, J. Jaramillo, R. Gomperts, R. E. Stratmann, 
 O. Yazyev, A. J. Austin, R. Cammi, C. Pomelli, J. W. Ochterski, 
 R. L. Martin, K. Morokuma, V. G. Zakrzewski, G. A. Voth, 
 P. Salvador, J. J. Dannenberg, S. Dapprich, A. D. Daniels, 
 O. Farkas, J. B. Foresman, J. V. Ortiz, J. Cioslowski, 
 and D. J. Fox, Gaussian, Inc., Wallingford CT, 2010.
 
 ******************************************
 Gaussian 09:  EM64L-G09RevC.01 23-Sep-2011
                17-Aug-2012 
 ******************************************
 %nproc=4
 Will use up to    4 processors via shared memory.
 %mem=7200MB
 %chk=e2-CIS-6-31Gd-opt.chk
 ----------------------------------------------------------------------
 #p CIS(NStates=4,Singlets)/6-31G(d) IOP(6/7=3) GFInput opt(modredun) f
 req
 ----------------------------------------------------------------------
 1/18=120,19=15,38=1/1,3;
 2/9=110,12=2,17=6,18=5,40=1/2;
 3/5=1,6=6,7=1,11=9,16=1,24=10,25=1,30=1,71=1/1,2,8,3;
 4//1;
 5/5=2,38=5/2;
 8/6=1,10=2,108=4/1,4;
 9/15=2,41=4,42=3,48=1/14;
 10/5=4/2;
 6/7=3,8=2,9=2,10=2/1;
 7/12=6,13=5/1,2,3,16;
 1/18=20,19=15/3(2);
 2/9=110/2;
 99//99;
 2/9=110/2;
 3/5=1,6=6,7=1,11=9,16=1,25=1,30=1,71=1/1,2,8,3;
 4/5=5,16=3/1;
 5/5=2,38=5/2;
 8/6=1,10=2,108=4/1,4;
 9/15=2,41=4,42=3,48=1,49=4/14;
 10/5=4/2;
 7/12=6,13=5/1,2,3,16;
 1/18=20,19=15/3(-8);
 2/9=110/2;
 6/7=3,8=2,9=2,10=2/1;
 99//99;
 Leave Link    1 at Fri Aug 17 21:50:35 2012, MaxMem=  943718400 cpu:       0.2
 (Enter /usr/local/gaussian-2009-C.01_sse2/g09/l101.exe)
 -----------------------------------------------------------------
 CIS(NStates=4,Singlets)/6-31G(d) optimalisation of ethylene dimer
 -----------------------------------------------------------------
 Charge =  0 Multiplicity = 1
 Symbolic Z-Matrix:
 C                     0.        0.        0. 
 H                     0.        0.        1.008 
 C                     1.15614   0.       -0.6675 
 H                    -0.9431    0.       -0.5445 
 H                     1.15614   0.       -1.7565 
 H                     2.09925   0.       -0.123 
 C                     0.        3.        0. 
 H                     0.        3.        1.008 
 C                     1.15614   3.       -0.6675 
 H                    -0.9431    3.       -0.5445 
 H                     1.15614   3.       -1.7565 
 H                     2.09925   3.       -0.123 
 
 The following ModRedundant input section has been read:
 B       1       7 F                                                           
 B       3       9 F                                                           
 D       1       7       9       3 F                                           
 Add atom      2 valence  3 ND=      0 dihedral       1      2      7      9
 Add atom      4 valence  3 ND=      0 dihedral       1      4      7      9
 Add atom      5 valence  3 ND=      0 dihedral       3      5      7      9
 Add atom      6 valence  3 ND=      0 dihedral       3      6      7      9
 Add atom      8 valence  3 ND=      0 dihedral       7      3      8      1
 Add atom     10 valence  3 ND=      0 dihedral       7      3     10      1
 Add atom     11 valence  3 ND=      0 dihedral       9      3     11      1
 Add atom     12 valence  3 ND=      0 dihedral       9      3     12      1
 NAtoms=     12 NQM=        0 NQMF=       0 NMMI=     12 NMMIF=      0
                NMic=       0 NMicF=      0.
                    Isotopes and Nuclear Properties:
 (Nuclear quadrupole moments (NQMom) in fm**2, nuclear magnetic moments (NMagM)
  in nuclear magnetons)

  Atom         1           2           3           4           5           6           7           8           9          10
 IAtWgt=          12           1          12           1           1           1          12           1          12           1
 AtmWgt=  12.0000000   1.0078250  12.0000000   1.0078250   1.0078250   1.0078250  12.0000000   1.0078250  12.0000000   1.0078250
 NucSpn=           0           1           0           1           1           1           0           1           0           1
 AtZEff=   0.0000000   0.0000000   0.0000000   0.0000000   0.0000000   0.0000000   0.0000000   0.0000000   0.0000000   0.0000000
 NQMom=    0.0000000   0.0000000   0.0000000   0.0000000   0.0000000   0.0000000   0.0000000   0.0000000   0.0000000   0.0000000
 NMagM=    0.0000000   2.7928460   0.0000000   2.7928460   2.7928460   2.7928460   0.0000000   2.7928460   0.0000000   2.7928460

  Atom        11          12
 IAtWgt=           1           1
 AtmWgt=   1.0078250   1.0078250
 NucSpn=           1           1
 AtZEff=   0.0000000   0.0000000
 NQMom=    0.0000000   0.0000000
 NMagM=    2.7928460   2.7928460
 Leave Link  101 at Fri Aug 17 21:50:36 2012, MaxMem=  943718400 cpu:       1.4
 (Enter /usr/local/gaussian-2009-C.01_sse2/g09/l103.exe)

 GradGradGradGradGradGradGradGradGradGradGradGradGradGradGradGradGradGrad
 Berny optimization.
 Initialization pass.
                           ----------------------------
                           !    Initial Parameters    !
                           ! (Angstroms and Degrees)  !
 --------------------------                            --------------------------
 ! Name  Definition              Value          Derivative Info.                !
 --------------------------------------------------------------------------------
 ! R1    R(1,2)                  1.008          estimate D2E/DX2                !
 ! R2    R(1,3)                  1.335          estimate D2E/DX2                !
 ! R3    R(1,4)                  1.089          estimate D2E/DX2                !
 ! R4    R(1,7)                  3.0            Frozen                          !
 ! R5    R(1,8)                  3.1648         estimate D2E/DX2                !
 ! R6    R(1,9)                  3.2836         estimate D2E/DX2                !
 ! R7    R(1,10)                 3.1915         estimate D2E/DX2                !
 ! R8    R(1,11)                 3.6636         estimate D2E/DX2                !
 ! R9    R(1,12)                 3.6636         estimate D2E/DX2                !
 ! R10   R(2,7)                  3.1648         estimate D2E/DX2                !
 ! R11   R(2,9)                  3.6255         estimate D2E/DX2                !
 ! R12   R(3,5)                  1.089          estimate D2E/DX2                !
 ! R13   R(3,6)                  1.089          estimate D2E/DX2                !
 ! R14   R(3,7)                  3.2836         estimate D2E/DX2                !
 ! R15   R(3,8)                  3.6255         estimate D2E/DX2                !
 ! R16   R(3,9)                  3.0            Frozen                          !
 ! R17   R(3,10)                 3.6636         estimate D2E/DX2                !
 ! R18   R(3,11)                 3.1915         estimate D2E/DX2                !
 ! R19   R(3,12)                 3.1915         estimate D2E/DX2                !
 ! R20   R(4,7)                  3.1915         estimate D2E/DX2                !
 ! R21   R(4,9)                  3.6636         estimate D2E/DX2                !
 ! R22   R(5,7)                  3.6636         estimate D2E/DX2                !
 ! R23   R(5,9)                  3.1915         estimate D2E/DX2                !
 ! R24   R(6,7)                  3.6636         estimate D2E/DX2                !
 ! R25   R(6,9)                  3.1915         estimate D2E/DX2                !
 ! R26   R(7,8)                  1.008          estimate D2E/DX2                !
 ! R27   R(7,9)                  1.335          estimate D2E/DX2                !
 ! R28   R(7,10)                 1.089          estimate D2E/DX2                !
 ! R29   R(9,11)                 1.089          estimate D2E/DX2                !
 ! R30   R(9,12)                 1.089          estimate D2E/DX2                !
 ! A1    A(2,1,3)              120.0            estimate D2E/DX2                !
 ! A2    A(2,1,4)              120.0            estimate D2E/DX2                !
 ! A3    A(2,1,8)               71.4277         estimate D2E/DX2                !
 ! A4    A(2,1,10)              99.8231         estimate D2E/DX2                !
 ! A5    A(2,1,11)             118.6493         estimate D2E/DX2                !
 ! A6    A(2,1,12)              91.924          estimate D2E/DX2                !
 ! A7    A(3,1,4)              120.0            estimate D2E/DX2                !
 ! A8    A(4,1,8)               99.1634         estimate D2E/DX2                !
 ! A9    A(4,1,10)              70.0491         estimate D2E/DX2                !
 ! A10   A(4,1,11)              91.924          estimate D2E/DX2                !
 ! A11   A(4,1,12)             118.6493         estimate D2E/DX2                !
 ! A12   A(7,1,11)              35.0285         estimate D2E/DX2                !
 ! A13   A(7,1,12)              35.0285         estimate D2E/DX2                !
 ! A14   A(8,1,9)               36.7457         estimate D2E/DX2                !
 ! A15   A(8,1,10)              33.2073         estimate D2E/DX2                !
 ! A16   A(8,1,11)              51.4265         estimate D2E/DX2                !
 ! A17   A(8,1,12)              40.0459         estimate D2E/DX2                !
 ! A18   A(9,1,10)              37.8677         estimate D2E/DX2                !
 ! A19   A(10,1,11)             40.6883         estimate D2E/DX2                !
 ! A20   A(10,1,12)             52.6899         estimate D2E/DX2                !
 ! A21   A(11,1,12)             29.8346         estimate D2E/DX2                !
 ! A22   A(1,3,5)              120.0            estimate D2E/DX2                !
 ! A23   A(1,3,6)              120.0            estimate D2E/DX2                !
 ! A24   A(5,3,6)              120.0            estimate D2E/DX2                !
 ! A25   A(5,3,8)              117.5258         estimate D2E/DX2                !
 ! A26   A(5,3,10)              91.924          estimate D2E/DX2                !
 ! A27   A(5,3,11)              70.0491         estimate D2E/DX2                !
 ! A28   A(5,3,12)              99.8231         estimate D2E/DX2                !
 ! A29   A(6,3,8)               92.5848         estimate D2E/DX2                !
 ! A30   A(6,3,10)             118.6493         estimate D2E/DX2                !
 ! A31   A(6,3,11)              99.8231         estimate D2E/DX2                !
 ! A32   A(6,3,12)              70.0491         estimate D2E/DX2                !
 ! A33   A(7,3,11)              37.8677         estimate D2E/DX2                !
 ! A34   A(7,3,12)              37.8677         estimate D2E/DX2                !
 ! A35   A(8,3,9)               34.1592         estimate D2E/DX2                !
 ! A36   A(8,3,10)              28.8554         estimate D2E/DX2                !
 ! A37   A(8,3,11)              51.6745         estimate D2E/DX2                !
 ! A38   A(8,3,12)              40.3209         estimate D2E/DX2                !
 ! A39   A(9,3,10)              35.0285         estimate D2E/DX2                !
 ! A40   A(10,3,11)             40.6883         estimate D2E/DX2                !
 ! A41   A(10,3,12)             52.6899         estimate D2E/DX2                !
 ! A42   A(11,3,12)             34.3751         estimate D2E/DX2                !
 ! A43   A(1,7,5)               35.0285         estimate D2E/DX2                !
 ! A44   A(1,7,6)               35.0285         estimate D2E/DX2                !
 ! A45   A(2,7,3)               36.7457         estimate D2E/DX2                !
 ! A46   A(2,7,4)               33.2073         estimate D2E/DX2                !
 ! A47   A(2,7,5)               51.4265         estimate D2E/DX2                !
 ! A48   A(2,7,6)               40.0459         estimate D2E/DX2                !
 ! A49   A(2,7,8)               71.4277         estimate D2E/DX2                !
 ! A50   A(2,7,10)              99.1634         estimate D2E/DX2                !
 ! A51   A(3,7,4)               37.8677         estimate D2E/DX2                !
 ! A52   A(4,7,5)               40.6883         estimate D2E/DX2                !
 ! A53   A(4,7,6)               52.6899         estimate D2E/DX2                !
 ! A54   A(4,7,8)               99.8231         estimate D2E/DX2                !
 ! A55   A(4,7,10)              70.0491         estimate D2E/DX2                !
 ! A56   A(5,7,6)               29.8346         estimate D2E/DX2                !
 ! A57   A(5,7,8)              118.6493         estimate D2E/DX2                !
 ! A58   A(5,7,10)              91.924          estimate D2E/DX2                !
 ! A59   A(6,7,8)               91.924          estimate D2E/DX2                !
 ! A60   A(6,7,10)             118.6493         estimate D2E/DX2                !
 ! A61   A(8,7,9)              120.0            estimate D2E/DX2                !
 ! A62   A(8,7,10)             120.0            estimate D2E/DX2                !
 ! A63   A(9,7,10)             120.0            estimate D2E/DX2                !
 ! A64   A(1,9,5)               37.8677         estimate D2E/DX2                !
 ! A65   A(1,9,6)               37.8677         estimate D2E/DX2                !
 ! A66   A(2,9,3)               34.1592         estimate D2E/DX2                !
 ! A67   A(2,9,4)               28.8554         estimate D2E/DX2                !
 ! A68   A(2,9,5)               51.6745         estimate D2E/DX2                !
 ! A69   A(2,9,6)               40.3209         estimate D2E/DX2                !
 ! A70   A(2,9,11)             117.5258         estimate D2E/DX2                !
 ! A71   A(2,9,12)              92.5848         estimate D2E/DX2                !
 ! A72   A(3,9,4)               35.0285         estimate D2E/DX2                !
 ! A73   A(4,9,5)               40.6883         estimate D2E/DX2                !
 ! A74   A(4,9,6)               52.6899         estimate D2E/DX2                !
 ! A75   A(4,9,11)              91.924          estimate D2E/DX2                !
 ! A76   A(4,9,12)             118.6493         estimate D2E/DX2                !
 ! A77   A(5,9,6)               34.3751         estimate D2E/DX2                !
 ! A78   A(5,9,11)              70.0491         estimate D2E/DX2                !
 ! A79   A(5,9,12)              99.8231         estimate D2E/DX2                !
 ! A80   A(6,9,11)              99.8231         estimate D2E/DX2                !
 ! A81   A(6,9,12)              70.0491         estimate D2E/DX2                !
 ! A82   A(7,9,11)             120.0            estimate D2E/DX2                !
 ! A83   A(7,9,12)             120.0            estimate D2E/DX2                !
 ! A84   A(11,9,12)            120.0            estimate D2E/DX2                !
 ! D1    D(2,1,3,5)            180.0            estimate D2E/DX2                !
 ! D2    D(2,1,3,6)              0.0            estimate D2E/DX2                !
 ! D3    D(4,1,3,5)              0.0            estimate D2E/DX2                !
 ! D4    D(4,1,3,6)            180.0            estimate D2E/DX2                !
 ! D5    D(11,1,7,5)             0.0            estimate D2E/DX2                !
 ! D6    D(11,1,7,6)           -53.2935         estimate D2E/DX2                !
 ! D7    D(12,1,7,5)            53.2935         estimate D2E/DX2                !
 ! D8    D(12,1,7,6)             0.0            estimate D2E/DX2                !
 ! D9    D(8,1,9,5)           -178.6783         estimate D2E/DX2                !
 ! D10   D(8,1,9,6)            123.7684         estimate D2E/DX2                !
 ! D11   D(10,1,9,5)          -122.4467         estimate D2E/DX2                !
 ! D12   D(10,1,9,6)           180.0            estimate D2E/DX2                !
 ! D13   D(1,2,7,9)            -61.3089         estimate D2E/DX2                !
 ! D14   D(11,3,7,2)           178.6783         estimate D2E/DX2                !
 ! D15   D(11,3,7,4)           122.4467         estimate D2E/DX2                !
 ! D16   D(12,3,7,2)          -123.7684         estimate D2E/DX2                !
 ! D17   D(12,3,7,4)           180.0            estimate D2E/DX2                !
 ! D18   D(7,3,8,1)            110.3346         estimate D2E/DX2                !
 ! D19   D(8,3,9,2)              0.0            estimate D2E/DX2                !
 ! D20   D(8,3,9,4)            -52.0399         estimate D2E/DX2                !
 ! D21   D(10,3,9,2)            52.0399         estimate D2E/DX2                !
 ! D22   D(10,3,9,4)             0.0            estimate D2E/DX2                !
 ! D23   D(7,3,10,1)          -109.7085         estimate D2E/DX2                !
 ! D24   D(9,3,11,1)           -61.5113         estimate D2E/DX2                !
 ! D25   D(9,3,12,1)            61.5113         estimate D2E/DX2                !
 ! D26   D(1,4,7,9)             61.5113         estimate D2E/DX2                !
 ! D27   D(3,5,7,9)            109.7085         estimate D2E/DX2                !
 ! D28   D(3,6,7,9)           -109.7085         estimate D2E/DX2                !
 ! D29   D(1,7,9,3)              0.0            Frozen                          !
 ! D30   D(8,7,9,11)           180.0            estimate D2E/DX2                !
 ! D31   D(8,7,9,12)             0.0            estimate D2E/DX2                !
 ! D32   D(10,7,9,11)            0.0            estimate D2E/DX2                !
 ! D33   D(10,7,9,12)          180.0            estimate D2E/DX2                !
 --------------------------------------------------------------------------------
 Trust Radius=3.00D-01 FncErr=1.00D-07 GrdErr=1.00D-07
 Number of steps in this run=    100 maximum allowed number of steps=    100.
 GradGradGradGradGradGradGradGradGradGradGradGradGradGradGradGradGradGrad

 Leave Link  103 at Fri Aug 17 21:50:36 2012, MaxMem=  943718400 cpu:       0.0
 (Enter /usr/local/gaussian-2009-C.01_sse2/g09/l202.exe)
                          Input orientation:                          
 ---------------------------------------------------------------------
 Center     Atomic      Atomic             Coordinates (Angstroms)
 Number     Number       Type             X           Y           Z
 ---------------------------------------------------------------------
      1          6           0        0.000000    0.000000    0.000000
      2          1           0        0.000000    0.000000    1.008000
      3          6           0        1.156144    0.000000   -0.667500
      4          1           0       -0.943102    0.000000   -0.544500
      5          1           0        1.156144    0.000000   -1.756500
      6          1           0        2.099246    0.000000   -0.123000
      7          6           0        0.000000    3.000000    0.000000
      8          1           0        0.000000    3.000000    1.008000
      9          6           0        1.156144    3.000000   -0.667500
     10          1           0       -0.943102    3.000000   -0.544500
     11          1           0        1.156144    3.000000   -1.756500
     12          1           0        2.099246    3.000000   -0.123000
 ---------------------------------------------------------------------
                    Distance matrix (angstroms):
                    1          2          3          4          5
     1  C    0.000000
     2  H    1.008000   0.000000
     3  C    1.335000   2.035674   0.000000
     4  H    1.089000   1.816507   2.102846   0.000000
     5  H    2.102846   2.996520   1.089000   2.424000   0.000000
     6  H    2.102846   2.384532   1.089000   3.071407   1.886203
     7  C    3.000000   3.164817   3.283630   3.191539   3.663599
     8  H    3.164817   3.000000   3.625461   3.507092   4.240180
     9  C    3.283630   3.625461   3.000000   3.663600   3.191539
    10  H    3.191539   3.507092   3.663600   3.000000   3.856913
    11  H    3.663599   4.240180   3.191539   3.856913   3.000000
    12  H    3.663600   3.832231   3.191539   4.293430   3.543694
                    6          7          8          9         10
     6  H    0.000000
     7  C    3.663600   0.000000
     8  H    3.832231   1.008000   0.000000
     9  C    3.191539   1.335000   2.035674   0.000000
    10  H    4.293430   1.089000   1.816507   2.102846   0.000000
    11  H    3.543694   2.102846   2.996520   1.089000   2.424000
    12  H    3.000000   2.102846   2.384532   1.089000   3.071407
                   11         12
    11  H    0.000000
    12  H    1.886203   0.000000
 Stoichiometry    C4H8
 Framework group  CS[X(C4H8)]
 Deg. of freedom    15
 Full point group                 CS      NOp   2
 Largest Abelian subgroup         CS      NOp   2
 Largest concise Abelian subgroup CS      NOp   2
                         Standard orientation:                         
 ---------------------------------------------------------------------
 Center     Atomic      Atomic             Coordinates (Angstroms)
 Number     Number       Type             X           Y           Z
 ---------------------------------------------------------------------
      1          6           0       -0.004384   -0.670031    1.500000
      2          1           0       -0.877338   -1.174031    1.500000
      3          6           0       -0.004384    0.664969    1.500000
      4          1           0        0.938718   -1.214532    1.500000
      5          1           0        0.938717    1.209469    1.500000
      6          1           0       -0.947486    1.209469    1.500000
      7          6           0       -0.004384   -0.670031   -1.500000
      8          1           0       -0.877338   -1.174031   -1.500000
      9          6           0       -0.004384    0.664969   -1.500000
     10          1           0        0.938718   -1.214532   -1.500000
     11          1           0        0.938717    1.209469   -1.500000
     12          1           0       -0.947486    1.209469   -1.500000
 ---------------------------------------------------------------------
 Rotational constants (GHZ):     12.6504172      3.7983381      3.1749174
 Leave Link  202 at Fri Aug 17 21:50:36 2012, MaxMem=  943718400 cpu:       0.0
 (Enter /usr/local/gaussian-2009-C.01_sse2/g09/l301.exe)
 Standard basis: 6-31G(d) (6D, 7F)
 Ernie: Thresh=  0.10000D-02 Tol=  0.10000D-05 Strict=F.
 AO basis set in the form of general basis input (Overlap normalization):
      1 0
 S   6 1.00       0.000000000000
      0.3047524880D+04  0.1834737132D-02
      0.4573695180D+03  0.1403732281D-01
      0.1039486850D+03  0.6884262226D-01
      0.2921015530D+02  0.2321844432D+00
      0.9286662960D+01  0.4679413484D+00
      0.3163926960D+01  0.3623119853D+00
 SP   3 1.00       0.000000000000
      0.7868272350D+01 -0.1193324198D+00  0.6899906659D-01
      0.1881288540D+01 -0.1608541517D+00  0.3164239610D+00
      0.5442492580D+00  0.1143456438D+01  0.7443082909D+00
 SP   1 1.00       0.000000000000
      0.1687144782D+00  0.1000000000D+01  0.1000000000D+01
 D   1 1.00       0.000000000000
      0.8000000000D+00  0.1000000000D+01
 ****
      2 0
 S   3 1.00       0.000000000000
      0.1873113696D+02  0.3349460434D-01
      0.2825394365D+01  0.2347269535D+00
      0.6401216923D+00  0.8137573261D+00
 S   1 1.00       0.000000000000
      0.1612777588D+00  0.1000000000D+01
 ****
      3 0
 S   6 1.00       0.000000000000
      0.3047524880D+04  0.1834737132D-02
      0.4573695180D+03  0.1403732281D-01
      0.1039486850D+03  0.6884262226D-01
      0.2921015530D+02  0.2321844432D+00
      0.9286662960D+01  0.4679413484D+00
      0.3163926960D+01  0.3623119853D+00
 SP   3 1.00       0.000000000000
      0.7868272350D+01 -0.1193324198D+00  0.6899906659D-01
      0.1881288540D+01 -0.1608541517D+00  0.3164239610D+00
      0.5442492580D+00  0.1143456438D+01  0.7443082909D+00
 SP   1 1.00       0.000000000000
      0.1687144782D+00  0.1000000000D+01  0.1000000000D+01
 D   1 1.00       0.000000000000
      0.8000000000D+00  0.1000000000D+01
 ****
      4 0
 S   3 1.00       0.000000000000
      0.1873113696D+02  0.3349460434D-01
      0.2825394365D+01  0.2347269535D+00
      0.6401216923D+00  0.8137573261D+00
 S   1 1.00       0.000000000000
      0.1612777588D+00  0.1000000000D+01
 ****
      5 0
 S   3 1.00       0.000000000000
      0.1873113696D+02  0.3349460434D-01
      0.2825394365D+01  0.2347269535D+00
      0.6401216923D+00  0.8137573261D+00
 S   1 1.00       0.000000000000
      0.1612777588D+00  0.1000000000D+01
 ****
      6 0
 S   3 1.00       0.000000000000
      0.1873113696D+02  0.3349460434D-01
      0.2825394365D+01  0.2347269535D+00
      0.6401216923D+00  0.8137573261D+00
 S   1 1.00       0.000000000000
      0.1612777588D+00  0.1000000000D+01
 ****
      7 0
 S   6 1.00       0.000000000000
      0.3047524880D+04  0.1834737132D-02
      0.4573695180D+03  0.1403732281D-01
      0.1039486850D+03  0.6884262226D-01
      0.2921015530D+02  0.2321844432D+00
      0.9286662960D+01  0.4679413484D+00
      0.3163926960D+01  0.3623119853D+00
 SP   3 1.00       0.000000000000
      0.7868272350D+01 -0.1193324198D+00  0.6899906659D-01
      0.1881288540D+01 -0.1608541517D+00  0.3164239610D+00
      0.5442492580D+00  0.1143456438D+01  0.7443082909D+00
 SP   1 1.00       0.000000000000
      0.1687144782D+00  0.1000000000D+01  0.1000000000D+01
 D   1 1.00       0.000000000000
      0.8000000000D+00  0.1000000000D+01
 ****
      8 0
 S   3 1.00       0.000000000000
      0.1873113696D+02  0.3349460434D-01
      0.2825394365D+01  0.2347269535D+00
      0.6401216923D+00  0.8137573261D+00
 S   1 1.00       0.000000000000
      0.1612777588D+00  0.1000000000D+01
 ****
      9 0
 S   6 1.00       0.000000000000
      0.3047524880D+04  0.1834737132D-02
      0.4573695180D+03  0.1403732281D-01
      0.1039486850D+03  0.6884262226D-01
      0.2921015530D+02  0.2321844432D+00
      0.9286662960D+01  0.4679413484D+00
      0.3163926960D+01  0.3623119853D+00
 SP   3 1.00       0.000000000000
      0.7868272350D+01 -0.1193324198D+00  0.6899906659D-01
      0.1881288540D+01 -0.1608541517D+00  0.3164239610D+00
      0.5442492580D+00  0.1143456438D+01  0.7443082909D+00
 SP   1 1.00       0.000000000000
      0.1687144782D+00  0.1000000000D+01  0.1000000000D+01
 D   1 1.00       0.000000000000
      0.8000000000D+00  0.1000000000D+01
 ****
     10 0
 S   3 1.00       0.000000000000
      0.1873113696D+02  0.3349460434D-01
      0.2825394365D+01  0.2347269535D+00
      0.6401216923D+00  0.8137573261D+00
 S   1 1.00       0.000000000000
      0.1612777588D+00  0.1000000000D+01
 ****
     11 0
 S   3 1.00       0.000000000000
      0.1873113696D+02  0.3349460434D-01
      0.2825394365D+01  0.2347269535D+00
      0.6401216923D+00  0.8137573261D+00
 S   1 1.00       0.000000000000
      0.1612777588D+00  0.1000000000D+01
 ****
     12 0
 S   3 1.00       0.000000000000
      0.1873113696D+02  0.3349460434D-01
      0.2825394365D+01  0.2347269535D+00
      0.6401216923D+00  0.8137573261D+00
 S   1 1.00       0.000000000000
      0.1612777588D+00  0.1000000000D+01
 ****

 There are    38 symmetry adapted basis functions of A'  symmetry.
 There are    38 symmetry adapted basis functions of A"  symmetry.
 Integral buffers will be    131072 words long.
 Raffenetti 1 integral format.
 Two-electron integral symmetry is turned on.
    76 basis functions,   144 primitive gaussians,    76 cartesian basis functions
    16 alpha electrons       16 beta electrons
       nuclear repulsion energy       108.8169299246 Hartrees.
 IExCor=    0 DFT=F Ex=HF Corr=None ExCW=0 ScaHFX=  1.000000
 ScaDFX=  1.000000  1.000000  1.000000  1.000000 ScalE2=  1.000000  1.000000
 IRadAn=      0 IRanWt=     -1 IRanGd=            0 ICorTp=0
 NAtoms=   12 NActive=   12 NUniq=    6 SFac= 4.00D+00 NAtFMM=   60 NAOKFM=F Big=F
 Leave Link  301 at Fri Aug 17 21:50:36 2012, MaxMem=  943718400 cpu:       0.4
 (Enter /usr/local/gaussian-2009-C.01_sse2/g09/l302.exe)
 NPDir=0 NMtPBC=     1 NCelOv=     1 NCel=       1 NClECP=     1 NCelD=      1
         NCelK=      1 NCelE2=     1 NClLst=     1 CellRange=     0.0.
 One-electron integrals computed using PRISM.
 One-electron integral symmetry used in STVInt
 NBasis=    76 RedAO= T  NBF=    38    38
 NBsUse=    76 1.00D-06 NBFU=    38    38
 Leave Link  302 at Fri Aug 17 21:50:36 2012, MaxMem=  943718400 cpu:       0.8
 (Enter /usr/local/gaussian-2009-C.01_sse2/g09/l308.exe)
 Leave Link  308 at Fri Aug 17 21:50:37 2012, MaxMem=  943718400 cpu:       0.3
 (Enter /usr/local/gaussian-2009-C.01_sse2/g09/l303.exe)
 DipDrv:  MaxL=1.
 Leave Link  303 at Fri Aug 17 21:50:37 2012, MaxMem=  943718400 cpu:       0.4
 (Enter /usr/local/gaussian-2009-C.01_sse2/g09/l401.exe)
 Harris functional with IExCor=  205 diagonalized for initial guess.
 ExpMin= 1.61D-01 ExpMax= 3.05D+03 ExpMxC= 4.57D+02 IAcc=1 IRadAn=         1 AccDes= 0.00D+00
 HarFok:  IExCor=  205 AccDes= 0.00D+00 IRadAn=         1 IDoV= 1
 ScaDFX=  1.000000  1.000000  1.000000  1.000000
 FoFCou: FMM=F IPFlag=           0 FMFlag=      100000 FMFlg1=           0
         NFxFlg=           0 DoJE=T BraDBF=F KetDBF=T FulRan=T
         Omega=  0.000000  0.000000  1.000000  0.000000  0.000000 ICntrl=     500 IOpCl=  0
         NMat0=    1 NMatS0=    1 NMatT0=    0 NMatD0=    1 NMtDS0=    0 NMtDT0=    0
         I1Cent=           4 NGrid=           0.
 Petite list used in FoFCou.
 Harris En= -156.429363640851    
 Initial guess orbital symmetries:
       Occupied  (A') (A") (A') (A") (A') (A") (A') (A") (A') (A")
                 (A') (A") (A') (A") (A') (A")
       Virtual   (A') (A") (A') (A') (A") (A") (A') (A") (A') (A")
                 (A') (A") (A') (A') (A") (A') (A') (A") (A") (A')
                 (A") (A') (A") (A') (A') (A") (A") (A') (A") (A')
                 (A") (A') (A") (A') (A") (A') (A") (A") (A') (A")
                 (A') (A") (A") (A') (A') (A") (A') (A") (A') (A")
                 (A') (A") (A') (A') (A") (A") (A') (A') (A") (A")
 The electronic state of the initial guess is 1-A'.
 Leave Link  401 at Fri Aug 17 21:50:37 2012, MaxMem=  943718400 cpu:       1.1
 (Enter /usr/local/gaussian-2009-C.01_sse2/g09/l502.exe)
 Closed shell SCF:
 Requested convergence on RMS density matrix=1.00D-08 within 128 cycles.
 Requested convergence on MAX density matrix=1.00D-06.
 Requested convergence on             energy=1.00D-06.
 No special actions if energy rises.
 Using DIIS extrapolation, IDIIS=  1040.
 Integral symmetry usage will be decided dynamically.
 Keep R1 ints in memory in canonical form, NReq=5138841.
 IEnd=       36626 IEndB=       36626 NGot=   943718400 MDV=   939422038
 LenX=   939422038 LenY=   939415821
 Symmetry not used in FoFDir.
 MinBra= 0 MaxBra= 2 Meth= 1.
 IRaf=       0 NMat=   1 IRICut=       1 DoRegI=T DoRafI=F ISym2E= 0 JSym2E=0.

 Cycle   1  Pass 1  IDiag  1:
 E= -155.768173489114    
 DIIS: error= 6.18D-02 at cycle   1 NSaved=   1.
 NSaved= 1 IEnMin= 1 EnMin= -155.768173489114     IErMin= 1 ErrMin= 6.18D-02
 ErrMax= 6.18D-02 EMaxC= 1.00D-01 BMatC= 3.27D-01 BMatP= 3.27D-01
 IDIUse=3 WtCom= 3.82D-01 WtEn= 6.18D-01
 Coeff-Com:  0.100D+01
 Coeff-En:   0.100D+01
 Coeff:      0.100D+01
 Gap=     0.470 Goal=   None    Shift=    0.000
 GapD=    0.470 DampG=2.000 DampE=0.500 DampFc=1.0000 IDamp=-1.
 RMSDP=7.49D-03 MaxDP=1.11D-01              OVMax= 1.32D-01

 Cycle   2  Pass 1  IDiag  1:
 E= -156.004398799751     Delta-E=       -0.236225310637 Rises=F Damp=F
 DIIS: error= 1.96D-02 at cycle   2 NSaved=   2.
 NSaved= 2 IEnMin= 2 EnMin= -156.004398799751     IErMin= 2 ErrMin= 1.96D-02
 ErrMax= 1.96D-02 EMaxC= 1.00D-01 BMatC= 3.53D-02 BMatP= 3.27D-01
 IDIUse=3 WtCom= 8.04D-01 WtEn= 1.96D-01
 Coeff-Com:  0.190D+00 0.810D+00
 Coeff-En:   0.000D+00 0.100D+01
 Coeff:      0.153D+00 0.847D+00
 Gap=     0.481 Goal=   None    Shift=    0.000
 RMSDP=2.34D-03 MaxDP=2.84D-02 DE=-2.36D-01 OVMax= 3.87D-02

 Cycle   3  Pass 1  IDiag  1:
 E= -156.035111945991     Delta-E=       -0.030713146239 Rises=F Damp=F
 DIIS: error= 4.38D-03 at cycle   3 NSaved=   3.
 NSaved= 3 IEnMin= 3 EnMin= -156.035111945991     IErMin= 3 ErrMin= 4.38D-03
 ErrMax= 4.38D-03 EMaxC= 1.00D-01 BMatC= 9.19D-04 BMatP= 3.53D-02
 IDIUse=3 WtCom= 9.56D-01 WtEn= 4.38D-02
 Coeff-Com: -0.233D-01 0.906D-01 0.933D+00
 Coeff-En:   0.000D+00 0.000D+00 0.100D+01
 Coeff:     -0.223D-01 0.866D-01 0.936D+00
 Gap=     0.470 Goal=   None    Shift=    0.000
 RMSDP=3.43D-04 MaxDP=5.68D-03 DE=-3.07D-02 OVMax= 8.00D-03

 Cycle   4  Pass 1  IDiag  1:
 E= -156.036132972814     Delta-E=       -0.001021026823 Rises=F Damp=F
 DIIS: error= 4.75D-04 at cycle   4 NSaved=   4.
 NSaved= 4 IEnMin= 4 EnMin= -156.036132972814     IErMin= 4 ErrMin= 4.75D-04
 ErrMax= 4.75D-04 EMaxC= 1.00D-01 BMatC= 1.59D-05 BMatP= 9.19D-04
 IDIUse=3 WtCom= 9.95D-01 WtEn= 4.75D-03
 Coeff-Com: -0.160D-02-0.469D-02 0.367D-01 0.970D+00
 Coeff-En:   0.000D+00 0.000D+00 0.000D+00 0.100D+01
 Coeff:     -0.159D-02-0.467D-02 0.365D-01 0.970D+00
 Gap=     0.470 Goal=   None    Shift=    0.000
 RMSDP=6.90D-05 MaxDP=8.65D-04 DE=-1.02D-03 OVMax= 1.10D-03

 Cycle   5  Pass 1  IDiag  1:
 E= -156.036150854136     Delta-E=       -0.000017881322 Rises=F Damp=F
 DIIS: error= 3.00D-04 at cycle   5 NSaved=   5.
 NSaved= 5 IEnMin= 5 EnMin= -156.036150854136     IErMin= 5 ErrMin= 3.00D-04
 ErrMax= 3.00D-04 EMaxC= 1.00D-01 BMatC= 2.93D-06 BMatP= 1.59D-05
 IDIUse=3 WtCom= 9.97D-01 WtEn= 3.00D-03
 Coeff-Com:  0.217D-02-0.122D-01-0.956D-01 0.255D+00 0.850D+00
 Coeff-En:   0.000D+00 0.000D+00 0.000D+00 0.000D+00 0.100D+01
 Coeff:      0.216D-02-0.121D-01-0.953D-01 0.254D+00 0.851D+00
 Gap=     0.470 Goal=   None    Shift=    0.000
 RMSDP=2.61D-05 MaxDP=3.43D-04 DE=-1.79D-05 OVMax= 8.20D-04

 Cycle   6  Pass 1  IDiag  1:
 E= -156.036154842246     Delta-E=       -0.000003988110 Rises=F Damp=F
 DIIS: error= 3.74D-05 at cycle   6 NSaved=   6.
 NSaved= 6 IEnMin= 6 EnMin= -156.036154842246     IErMin= 6 ErrMin= 3.74D-05
 ErrMax= 3.74D-05 EMaxC= 1.00D-01 BMatC= 1.01D-07 BMatP= 2.93D-06
 IDIUse=1 WtCom= 1.00D+00 WtEn= 0.00D+00
 Coeff-Com:  0.715D-04 0.501D-04-0.180D-02-0.638D-01 0.366D-01 0.103D+01
 Coeff:      0.715D-04 0.501D-04-0.180D-02-0.638D-01 0.366D-01 0.103D+01
 Gap=     0.470 Goal=   None    Shift=    0.000
 RMSDP=7.40D-06 MaxDP=8.86D-05 DE=-3.99D-06 OVMax= 1.10D-04

 Cycle   7  Pass 1  IDiag  1:
 E= -156.036155009791     Delta-E=       -0.000000167545 Rises=F Damp=F
 DIIS: error= 1.12D-05 at cycle   7 NSaved=   7.
 NSaved= 7 IEnMin= 7 EnMin= -156.036155009791     IErMin= 7 ErrMin= 1.12D-05
 ErrMax= 1.12D-05 EMaxC= 1.00D-01 BMatC= 6.65D-09 BMatP= 1.01D-07
 IDIUse=1 WtCom= 1.00D+00 WtEn= 0.00D+00
 Coeff-Com: -0.107D-03 0.540D-03 0.465D-02-0.199D-02-0.211D-01-0.299D+00
 Coeff-Com:  0.132D+01
 Coeff:     -0.107D-03 0.540D-03 0.465D-02-0.199D-02-0.211D-01-0.299D+00
 Coeff:      0.132D+01
 Gap=     0.470 Goal=   None    Shift=    0.000
 RMSDP=2.67D-06 MaxDP=2.82D-05 DE=-1.68D-07 OVMax= 6.47D-05

 Cycle   8  Pass 1  IDiag  1:
 E= -156.036155027417     Delta-E=       -0.000000017626 Rises=F Damp=F
 DIIS: error= 3.96D-06 at cycle   8 NSaved=   8.
 NSaved= 8 IEnMin= 8 EnMin= -156.036155027417     IErMin= 8 ErrMin= 3.96D-06
 ErrMax= 3.96D-06 EMaxC= 1.00D-01 BMatC= 7.16D-10 BMatP= 6.65D-09
 IDIUse=1 WtCom= 1.00D+00 WtEn= 0.00D+00
 Coeff-Com:  0.241D-04-0.148D-03-0.115D-02 0.366D-02 0.124D-01-0.141D-01
 Coeff-Com: -0.358D+00 0.136D+01
 Coeff:      0.241D-04-0.148D-03-0.115D-02 0.366D-02 0.124D-01-0.141D-01
 Coeff:     -0.358D+00 0.136D+01
 Gap=     0.470 Goal=   None    Shift=    0.000
 RMSDP=9.32D-07 MaxDP=9.99D-06 DE=-1.76D-08 OVMax= 2.27D-05

 Cycle   9  Pass 1  IDiag  1:
 E= -156.036155029270     Delta-E=       -0.000000001853 Rises=F Damp=F
 DIIS: error= 7.43D-07 at cycle   9 NSaved=   9.
 NSaved= 9 IEnMin= 9 EnMin= -156.036155029270     IErMin= 9 ErrMin= 7.43D-07
 ErrMax= 7.43D-07 EMaxC= 1.00D-01 BMatC= 2.93D-11 BMatP= 7.16D-10
 IDIUse=1 WtCom= 1.00D+00 WtEn= 0.00D+00
 Coeff-Com:  0.454D-05-0.227D-04-0.200D-03-0.850D-03 0.143D-02 0.260D-01
 Coeff-Com: -0.503D-01-0.222D+00 0.125D+01
 Coeff:      0.454D-05-0.227D-04-0.200D-03-0.850D-03 0.143D-02 0.260D-01
 Coeff:     -0.503D-01-0.222D+00 0.125D+01
 Gap=     0.470 Goal=   None    Shift=    0.000
 RMSDP=2.11D-07 MaxDP=2.46D-06 DE=-1.85D-09 OVMax= 4.59D-06

 Cycle  10  Pass 1  IDiag  1:
 E= -156.036155029343     Delta-E=       -0.000000000073 Rises=F Damp=F
 DIIS: error= 5.75D-08 at cycle  10 NSaved=  10.
 NSaved=10 IEnMin=10 EnMin= -156.036155029343     IErMin=10 ErrMin= 5.75D-08
 ErrMax= 5.75D-08 EMaxC= 1.00D-01 BMatC= 2.78D-13 BMatP= 2.93D-11
 IDIUse=1 WtCom= 1.00D+00 WtEn= 0.00D+00
 Coeff-Com: -0.163D-05 0.900D-05 0.757D-04 0.905D-04-0.521D-03-0.603D-02
 Coeff-Com:  0.176D-01 0.371D-01-0.326D+00 0.128D+01
 Coeff:     -0.163D-05 0.900D-05 0.757D-04 0.905D-04-0.521D-03-0.603D-02
 Coeff:      0.176D-01 0.371D-01-0.326D+00 0.128D+01
 Gap=     0.470 Goal=   None    Shift=    0.000
 RMSDP=1.90D-08 MaxDP=1.81D-07 DE=-7.29D-11 OVMax= 3.77D-07

 Cycle  11  Pass 1  IDiag  1:
 E= -156.036155029343     Delta-E=       -0.000000000001 Rises=F Damp=F
 DIIS: error= 1.32D-08 at cycle  11 NSaved=  11.
 NSaved=11 IEnMin=11 EnMin= -156.036155029343     IErMin=11 ErrMin= 1.32D-08
 ErrMax= 1.32D-08 EMaxC= 1.00D-01 BMatC= 6.71D-15 BMatP= 2.78D-13
 IDIUse=1 WtCom= 1.00D+00 WtEn= 0.00D+00
 Coeff-Com:  0.396D-06-0.219D-05-0.184D-04-0.800D-05 0.135D-03 0.118D-02
 Coeff-Com: -0.450D-02-0.306D-02 0.577D-01-0.342D+00 0.129D+01
 Coeff:      0.396D-06-0.219D-05-0.184D-04-0.800D-05 0.135D-03 0.118D-02
 Coeff:     -0.450D-02-0.306D-02 0.577D-01-0.342D+00 0.129D+01
 Gap=     0.470 Goal=   None    Shift=    0.000
 RMSDP=3.91D-09 MaxDP=3.56D-08 DE=-6.82D-13 OVMax= 7.97D-08

 SCF Done:  E(RHF) =  -156.036155029     A.U. after   11 cycles
             Convg  =    0.3908D-08             -V/T =  2.0000
 KE= 1.560433145048D+02 PE=-5.805031534315D+02 EE= 1.596067539728D+02
 Leave Link  502 at Fri Aug 17 21:50:38 2012, MaxMem=  943718400 cpu:       2.4
 (Enter /usr/local/gaussian-2009-C.01_sse2/g09/l801.exe)
 ExpMin= 1.61D-01 ExpMax= 3.05D+03 ExpMxC= 4.57D+02 IAcc=3 IRadAn=         5 AccDes= 0.00D+00
 HarFok:  IExCor=  205 AccDes= 0.00D+00 IRadAn=         5 IDoV=-2
 ScaDFX=  1.000000  1.000000  1.000000  1.000000
 Largest valence mixing into a core orbital is  2.14D-04
 Largest core mixing into a valence orbital is  4.34D-05
 Range of M.O.s used for correlation:     5    76
 NBasis=    76 NAE=    16 NBE=    16 NFC=     4 NFV=     0
 NROrb=     72 NOA=    12 NOB=    12 NVA=    60 NVB=    60
 Leave Link  801 at Fri Aug 17 21:50:38 2012, MaxMem=  943718400 cpu:       0.9
 (Enter /usr/local/gaussian-2009-C.01_sse2/g09/l804.exe)
 Closed-shell transformation, MDV=   943718400 ITran=3 ISComp=1.
 Semi-Direct transformation.
 ModeAB=           4 MOrb=            12 LenV=     943460325
 LASXX=       684951 LTotXX=      684951 LenRXX=     1408335
 LTotAB=      723384 MaxLAS=     1371168 LenRXY=           0
 NonZer=     2093286 LenScr=     3924480 LnRSAI=     1371168
 LnScr1=     2742272 LExtra=           0 Total=      9446255
 MaxDsk=          -1 SrtSym=           T ITran=            3
 DoSDTr:  NPSUse=  4
 JobTyp=0 Pass  1:  I=   1 to  12.
 (rs|ai) integrals will be sorted in core.
 Complete sort for first half transformation.
 First half transformation complete.
 Begin second half transformation for I=  10.
 Complete sort for second half transformation.
 Second half transformation complete.
 Spin components of T(2) and E(2):
     alpha-alpha T2 =       0.2066248193D-01 E2=     -0.5860810098D-01
     alpha-beta  T2 =       0.1446299637D+00 E2=     -0.3967185350D+00
     beta-beta   T2 =       0.2066248193D-01 E2=     -0.5860810098D-01
 ANorm=    0.1089015577D+01
 E2 =    -0.5139347369D+00 EUMP2 =    -0.15655008976627D+03
 Leave Link  804 at Fri Aug 17 21:50:39 2012, MaxMem=  943718400 cpu:       2.4
 (Enter /usr/local/gaussian-2009-C.01_sse2/g09/l914.exe)
 RHF ground state
 MDV=   943718400 DFT=F DoStab=F Mixed=F DoRPA=F DoScal=F NonHer=F
 Making orbital integer symmetry assigments:
 Orbital symmetries:
       Occupied  (A") (A') (A") (A') (A') (A") (A') (A") (A') (A")
                 (A') (A") (A') (A") (A') (A")
       Virtual   (A') (A") (A') (A') (A") (A') (A") (A") (A') (A")
                 (A') (A") (A') (A') (A") (A') (A") (A') (A") (A')
                 (A") (A') (A') (A") (A') (A") (A") (A') (A") (A')
                 (A") (A') (A") (A') (A") (A") (A') (A") (A') (A")
                 (A') (A") (A") (A') (A') (A") (A') (A") (A') (A")
                 (A') (A") (A') (A") (A') (A") (A') (A') (A") (A")
 FoFCou: FMM=F IPFlag=           0 FMFlag=      100000 FMFlg1=           0
         NFxFlg=           0 DoJE=F BraDBF=F KetDBF=F FulRan=T
         Omega=  0.000000  0.000000  1.000000  0.000000  0.000000 ICntrl=       0 IOpCl=  1
         NMat0=    1 NMatS0=    1 NMatT0=    0 NMatD0=    1 NMtDS0=    0 NMtDT0=    0
         I1Cent=           0 NGrid=           0.
 Petite list used in FoFCou.
    16 initial guesses have been made.
 Convergence on wavefunction:    0.000001000000000
 Davidson Disk Diagonalization:  ConvIn= 1.00D-06 SkipCon=T Conv= 1.00D-06.
 Max sub-space:   200 roots to seek:    16 dimension of matrix:   1440
 Iteration     1 Dimension    16 NMult    16
 New state      2 was old state      4
 New state      3 was old state      9
 New state      4 was old state      8
 Excitation Energies [eV] at current iteration:
 Root      1 :     7.506736633194696
 Root      2 :     9.734406818230500
 Root      3 :     9.857414201249254
 Root      4 :     9.968479904532092
 Root      5 :    10.205668224073920
 Root      6 :    10.440499472617230
 Root      7 :    10.861792478578390
 Root      8 :    11.123783873822330
 Root      9 :    11.356327578006560
 Root     10 :    11.578128292343080
 Root     11 :    12.049732827006600
 Root     12 :    12.368484309119750
 Root     13 :    12.461131514821930
 Root     14 :    12.856591534795540
 Root     15 :    13.020841125085180
 Root     16 :    14.845014824513080
 Iteration     2 Dimension    32 NMult    32
 Root      1 not converged, maximum delta is    0.073345593887844
 Root      2 not converged, maximum delta is    0.232217558079336
 No map to state      3
 No map to state      4
 Excitation Energies [eV] at current iteration:
 Root      1 :     6.663690295496733   Change is   -0.843046337697964
 Root      2 :     9.117660668324071   Change is   -0.616746149906430
 Root      3 :     9.136351967391345
 Root      4 :     9.516146920248044
 Iteration     3 Dimension    36 NMult    36
 Root      1 not converged, maximum delta is    0.005577399174336
 Root      2 not converged, maximum delta is    0.017958079647395
 Root      3 not converged, maximum delta is    0.013135768420041
 Root      4 not converged, maximum delta is    0.021201152921887
 Excitation Energies [eV] at current iteration:
 Root      1 :     6.654345669206220   Change is   -0.009344626290512
 Root      2 :     9.091358409140636   Change is   -0.026302259183434
 Root      3 :     9.106120458068041   Change is   -0.030231509323303
 Root      4 :     9.477769597606597   Change is   -0.038377322641446
 Iteration     4 Dimension    40 NMult    40
 Root      1 not converged, maximum delta is    0.001556142816646
 Root      2 not converged, maximum delta is    0.000917470550816
 Root      3 not converged, maximum delta is    0.001217946721571
 Root      4 not converged, maximum delta is    0.005040743041249
 Excitation Energies [eV] at current iteration:
 Root      1 :     6.654098840966044   Change is   -0.000246828240176
 Root      2 :     9.091097976455044   Change is   -0.000260432685591
 Root      3 :     9.105471518615394   Change is   -0.000648939452647
 Root      4 :     9.476843887863147   Change is   -0.000925709743449
 Iteration     5 Dimension    44 NMult    44
 Root      1 not converged, maximum delta is    0.000307180380510
 Root      2 not converged, maximum delta is    0.000338103615165
 Root      3 not converged, maximum delta is    0.000463038603581
 Root      4 not converged, maximum delta is    0.000849618235646
 Excitation Energies [eV] at current iteration:
 Root      1 :     6.654088821495813   Change is   -0.000010019470230
 Root      2 :     9.091078664994303   Change is   -0.000019311460743
 Root      3 :     9.105446429630771   Change is   -0.000025088984624
 Root      4 :     9.476795613578819   Change is   -0.000048274284328
 Iteration     6 Dimension    48 NMult    48
 Root      1 not converged, maximum delta is    0.000029481673529
 Root      2 not converged, maximum delta is    0.000192201379975
 Root      3 not converged, maximum delta is    0.000165059667251
 Root      4 not converged, maximum delta is    0.000216338401038
 Excitation Energies [eV] at current iteration:
 Root      1 :     6.654088451307114   Change is   -0.000000370188699
 Root      2 :     9.091076538918712   Change is   -0.000002126075590
 Root      3 :     9.105443923039628   Change is   -0.000002506591141
 Root      4 :     9.476790708772425   Change is   -0.000004904806395
 Iteration     7 Dimension    52 NMult    52
 Root      1 not converged, maximum delta is    0.000007095966338
 Root      2 not converged, maximum delta is    0.000092755028885
 Root      3 not converged, maximum delta is    0.000026065868597
 Root      4 not converged, maximum delta is    0.000035755161355
 Excitation Energies [eV] at current iteration:
 Root      1 :     6.654088445027397   Change is   -0.000000006279717
 Root      2 :     9.091076241911722   Change is   -0.000000297006991
 Root      3 :     9.105443803067740   Change is   -0.000000119971889
 Root      4 :     9.476790504915241   Change is   -0.000000203857183
 Iteration     8 Dimension    56 NMult    56
 Root      1 not converged, maximum delta is    0.000002153048426
 Root      2 not converged, maximum delta is    0.000016499469391
 Root      3 not converged, maximum delta is    0.000010428117026
 Root      4 not converged, maximum delta is    0.000008276470038
 Excitation Energies [eV] at current iteration:
 Root      1 :     6.654088444611917   Change is   -0.000000000415480
 Root      2 :     9.091076218891937   Change is   -0.000000023019784
 Root      3 :     9.105443791620649   Change is   -0.000000011447091
 Root      4 :     9.476790498520669   Change is   -0.000000006394572
 Iteration     9 Dimension    60 NMult    60
 Root      1 has converged.
 Root      2 not converged, maximum delta is    0.000002599478368
 Root      3 not converged, maximum delta is    0.000005252808805
 Root      4 not converged, maximum delta is    0.000002518840187
 Excitation Energies [eV] at current iteration:
 Root      1 :     6.654088444597259   Change is   -0.000000000014657
 Root      2 :     9.091076217759175   Change is   -0.000000001132762
 Root      3 :     9.105443789962756   Change is   -0.000000001657892
 Root      4 :     9.476790498073731   Change is   -0.000000000446939
 Iteration    10 Dimension    63 NMult    63
 Root      1 has converged.
 Root      2 has converged.
 Root      3 not converged, maximum delta is    0.000001306209805
 Root      4 has converged.
 Excitation Energies [eV] at current iteration:
 Root      1 :     6.654088444597286   Change is    0.000000000000026
 Root      2 :     9.091076217696136   Change is   -0.000000000063039
 Root      3 :     9.105443789844315   Change is   -0.000000000118441
 Root      4 :     9.476790498054365   Change is   -0.000000000019367
 Iteration    11 Dimension    64 NMult    64
 Root      1 has converged.
 Root      2 has converged.
 Root      3 has converged.
 Root      4 has converged.
 Excitation Energies [eV] at current iteration:
 Root      1 :     6.654088444597269   Change is   -0.000000000000017
 Root      2 :     9.091076217696141   Change is    0.000000000000005
 Root      3 :     9.105443789829922   Change is   -0.000000000014394
 Root      4 :     9.476790498054353   Change is   -0.000000000000012
 Convergence achieved on expansion vectors.
 ***********************************************************************
 Excited states from <AA,BB:AA,BB> singles matrix:
 ***********************************************************************
 
 1PDM for each excited state written to RWF  633
 Ground to excited state transition densities written to RWF  633
 Ground to excited state transition electric dipole moments (Au):
       state          X           Y           Z        Dip. S.      Osc.
         1         0.0000      0.0000      0.0001      0.0000      0.0000
         2         0.0000      0.0000      0.0694      0.0048      0.0011
         3         0.0228     -2.2435      0.0000      5.0340      1.1230
         4         0.0000      0.0000     -0.0150      0.0002      0.0001
 Ground to excited state transition velocity dipole moments (Au):
       state          X           Y           Z        Dip. S.      Osc.
         1         0.0000      0.0000      0.0003      0.0000      0.0000
         2         0.0000      0.0000     -0.0852      0.0073      0.0145
         3        -0.0088      0.2990      0.0000      0.0895      0.1783
         4         0.0000      0.0000      0.0218      0.0005      0.0009
 Ground to excited state transition magnetic dipole moments (Au):
       state          X           Y           Z
         1        -1.6015     -0.0324      0.0000
         2        -0.0415      0.3282      0.0000
         3         0.0000      0.0000     -0.0275
         4         0.3314      1.5245      0.0000
 Ground to excited state transition velocity quadrupole moments (Au):
       state          XX          YY          ZZ          XY          XZ          YZ
         1         0.0000      0.0000      0.0000      0.0000     -0.0201      0.7921
         2         0.0000      0.0000      0.0000      0.0000     -0.0311     -0.0052
         3         0.0208      0.0129     -0.0070      0.0289      0.0000      0.0000
         4         0.0000      0.0000      0.0000      0.0000     -0.1508      0.0587
 <0|del|b> * <b|rxdel|0> + <0|del|b> * <b|delr+rdel|0>
 Rotatory Strengths (R) in cgs (10**-40 erg-esu-cm/Gauss)
       state          XX          YY          ZZ    R(velocity)
         1         0.0000      0.0000      0.0000      0.0000
         2         0.0000      0.0000      0.0000      0.0000
         3         0.0000      0.0000      0.0000      0.0000
         4         0.0000      0.0000      0.0000      0.0000
 1/2[<0|r|b>*<b|rxdel|0> + (<0|rxdel|b>*<b|r|0>)*]
 Rotatory Strengths (R) in cgs (10**-40 erg-esu-cm/Gauss)
       state          XX          YY          ZZ     R(length)
         1         0.0000      0.0000      0.0000      0.0000
         2         0.0000      0.0000      0.0000      0.0000
         3         0.0000      0.0000      0.0000      0.0000
         4         0.0000      0.0000      0.0000      0.0000
  1/2[<0|del|b>*<b|r|0> + (<0|r|b>*<b|del|0>)*] (Au)
       state          X           Y           Z        Dip. S.   Osc.(frdel)
         1         0.0000      0.0000      0.0000      0.0000      0.0000
         2         0.0000      0.0000     -0.0059      0.0059      0.0039
         3        -0.0002     -0.6709      0.0000      0.6711      0.4474
         4         0.0000      0.0000     -0.0003      0.0003      0.0002

 Excitation energies and oscillator strengths:
 
 Excited State   1:      Singlet-A"     6.6541 eV  186.33 nm  f=0.0000  <S**2>=0.000
      15 -> 18         0.14333
      16 -> 17         0.68022
 This state for optimization and/or second-order correction.
 Total Energy, E(CIS) =  -155.791621768    
 Copying the excited state density for this state as the 1-particle RhoCI density.
 
 Excited State   2:      Singlet-A"     9.0911 eV  136.38 nm  f=0.0011  <S**2>=0.000
      15 -> 21         0.24992
      16 -> 19         0.64452
      16 -> 20         0.11250
 
 Excited State   3:      Singlet-A'     9.1054 eV  136.16 nm  f=1.1230  <S**2>=0.000
      15 -> 17         0.51309
      16 -> 18         0.44518
 
 Excited State   4:      Singlet-A"     9.4768 eV  130.83 nm  f=0.0001  <S**2>=0.000
      13 -> 18        -0.21413
      14 -> 17        -0.35367
      15 -> 23         0.22756
      16 -> 19        -0.13189
      16 -> 20         0.49308
 SavETr:  write IOETrn=   770 NScale= 10 NData=  16 NLR=1 LETran=      82.
 The selected state is a singlet
 Cannot handle 2e integral symmetry, ISym2E=1.
 CISAX:  IP=  1 NPass=   1 NMax=     1.
 CISAX will form     1 AO SS matrices at one time.
 NMat=     1 NSing=     1.
 Symmetry not used in FoFDir.
 MinBra= 0 MaxBra= 2 Meth= 1.
 IRaf=       0 NMat=   1 IRICut=       1 DoRegI=T DoRafI=F ISym2E= 0 JSym2E=0.
 Leave Link  914 at Fri Aug 17 21:50:40 2012, MaxMem=  943718400 cpu:       3.4
 (Enter /usr/local/gaussian-2009-C.01_sse2/g09/l1002.exe)
 Minotr:  Closed shell wavefunction.
          Computing CIS/TD-HF/TD-KS derivatives.
          Using Z-Vector for PSCF gradient.
          Skipping F1 and S1 gradient terms here.
          IDoAtm=111111111111
          Frozen-core window.
          Direct CPHF calculation.
          Differentiating once with respect to electric field.
                with respect to dipole field.
          Differentiating once with respect to nuclear coordinates.
          Requested convergence is 1.0D-10 RMS, and 1.0D-09 maximum.
          NewPWx=F KeepS1=T KeepF1=T KeepIn=T MapXYZ=F SortEE=F KeepMc=T.
          MDV=     943718276 using IRadAn=       0.
          Keep R1 ints in memory in canonical form, NReq=5103298.
 Symmetry not used in FoFDir.
 MinBra= 0 MaxBra= 2 Meth= 1.
 IRaf=       0 NMat=   1 IRICut=       1 DoRegI=T DoRafI=F ISym2E= 0 JSym2E=0.
          Solving linear equations separately, MaxMat=       0.
          There are     1 degrees of freedom in the 1st order CPHF.  IDoFFX=0.
 LinEq1:  Iter=  0 NonCon=     1 RMS=5.08D-03 Max=4.86D-02
 AX will form     1 AO Fock derivatives at one time.
 LinEq1:  Iter=  1 NonCon=     1 RMS=1.52D-03 Max=3.03D-02
 LinEq1:  Iter=  2 NonCon=     1 RMS=2.19D-04 Max=2.88D-03
 LinEq1:  Iter=  3 NonCon=     1 RMS=3.46D-05 Max=5.90D-04
 LinEq1:  Iter=  4 NonCon=     1 RMS=8.57D-06 Max=1.21D-04
 LinEq1:  Iter=  5 NonCon=     1 RMS=2.50D-06 Max=2.82D-05
 LinEq1:  Iter=  6 NonCon=     1 RMS=6.13D-07 Max=8.32D-06
 LinEq1:  Iter=  7 NonCon=     1 RMS=1.01D-07 Max=9.46D-07
 LinEq1:  Iter=  8 NonCon=     1 RMS=1.35D-08 Max=2.00D-07
 LinEq1:  Iter=  9 NonCon=     1 RMS=1.94D-09 Max=2.32D-08
 LinEq1:  Iter= 10 NonCon=     1 RMS=1.98D-10 Max=1.86D-09
 LinEq1:  Iter= 11 NonCon=     0 RMS=3.43D-11 Max=2.52D-10
 Linear equations converged to 1.000D-10 1.000D-09 after    11 iterations.
 End of Minotr Frequency-dependent properties file   721 does not exist.
 End of Minotr Frequency-dependent properties file   722 does not exist.
 Leave Link 1002 at Fri Aug 17 21:50:41 2012, MaxMem=  943718400 cpu:       2.3
 (Enter /usr/local/gaussian-2009-C.01_sse2/g09/l601.exe)
 Copying SCF densities to generalized density rwf, IOpCl= 0 IROHF=0.

 **********************************************************************

            Population analysis using the SCF density.

 **********************************************************************

 Orbital symmetries:
       Occupied  (A") (A') (A") (A') (A') (A") (A') (A") (A') (A")
                 (A') (A") (A') (A") (A') (A")
       Virtual   (A') (A") (A') (A') (A") (A') (A") (A") (A') (A")
                 (A') (A") (A') (A') (A") (A') (A") (A') (A") (A')
                 (A") (A') (A') (A") (A') (A") (A") (A') (A") (A')
                 (A") (A') (A") (A') (A") (A") (A') (A") (A') (A")
                 (A') (A") (A") (A') (A') (A") (A') (A") (A') (A")
                 (A') (A") (A') (A") (A') (A") (A') (A') (A") (A")
 The electronic state is 1-A'.
 Alpha  occ. eigenvalues --  -11.21862 -11.21860 -11.20962 -11.20960  -1.03028
 Alpha  occ. eigenvalues --   -1.01676  -0.79135  -0.77857  -0.64704  -0.63637
 Alpha  occ. eigenvalues --   -0.57256  -0.56452  -0.50970  -0.49981  -0.39948
 Alpha  occ. eigenvalues --   -0.32029
 Alpha virt. eigenvalues --    0.14995   0.23306   0.24366   0.27939   0.29096
 Alpha virt. eigenvalues --    0.29779   0.32199   0.34654   0.36900   0.42259
 Alpha virt. eigenvalues --    0.47033   0.50953   0.63308   0.70811   0.71073
 Alpha virt. eigenvalues --    0.73768   0.78639   0.83347   0.83612   0.85486
 Alpha virt. eigenvalues --    0.90712   0.94959   1.10147   1.11759   1.14206
 Alpha virt. eigenvalues --    1.15013   1.17791   1.18071   1.20388   1.23287
 Alpha virt. eigenvalues --    1.26709   1.27954   1.36256   1.45187   1.63815
 Alpha virt. eigenvalues --    1.65450   1.74993   1.75463   1.82645   1.82830
 Alpha virt. eigenvalues --    2.13596   2.13949   2.21354   2.23720   2.32279
 Alpha virt. eigenvalues --    2.37157   2.40265   2.47301   2.67480   2.68976
 Alpha virt. eigenvalues --    2.71828   2.80957   3.02443   3.06814   3.07485
 Alpha virt. eigenvalues --    3.08484   4.50135   4.66125   4.69773   4.82166
     Molecular Orbital Coefficients:
                           1         2         3         4         5
                           O         O         O         O         O
     Eigenvalues --   -11.21862 -11.21860 -11.20962 -11.20960  -1.03028
   1 1   C  1S          0.06520   0.06470   0.70106   0.70095  -0.11225
   2        2S          0.00159   0.00158   0.02006   0.01952   0.21262
   3        2PX        -0.00001   0.00000  -0.00006  -0.00007  -0.00816
   4        2PY        -0.00009  -0.00016  -0.00005  -0.00003   0.06679
   5        2PZ        -0.00009   0.00002  -0.00024   0.00007  -0.00383
   6        3S          0.00290   0.00194  -0.01139  -0.00778   0.15795
   7        3PX         0.00003   0.00001   0.00014   0.00009   0.00142
   8        3PY         0.00164   0.00103  -0.00103  -0.00051   0.00452
   9        3PZ        -0.00008   0.00003   0.00084  -0.00021  -0.00085
  10        4XX        -0.00023  -0.00034  -0.00116  -0.00147   0.00509
  11        4YY        -0.00026  -0.00029  -0.00101  -0.00128   0.01114
  12        4ZZ        -0.00018  -0.00024  -0.00161  -0.00193  -0.00874
  13        4XY         0.00001   0.00001   0.00007   0.00008   0.00075
  14        4XZ         0.00000   0.00000   0.00000   0.00000   0.00002
  15        4YZ        -0.00006   0.00001   0.00005  -0.00001  -0.00025
  16 2   H  1S         -0.00008  -0.00003   0.00000  -0.00018   0.06930
  17        2S          0.00023   0.00008   0.00208   0.00154   0.01567
  18 3   C  1S          0.70106   0.70095  -0.06566  -0.06516  -0.10735
  19        2S          0.01969   0.01916  -0.00211  -0.00199   0.20343
  20        2PX         0.00000   0.00000   0.00000   0.00000  -0.00099
  21        2PY         0.00004   0.00004   0.00008   0.00015  -0.07401
  22        2PZ        -0.00025   0.00007  -0.00004   0.00001  -0.00380
  23        3S         -0.01037  -0.00710   0.00492   0.00330   0.15541
  24        3PX        -0.00002  -0.00001  -0.00004  -0.00003  -0.00230
  25        3PY         0.00077   0.00035  -0.00178  -0.00109  -0.00663
  26        3PZ         0.00081  -0.00021  -0.00024   0.00006  -0.00066
  27        4XX        -0.00118  -0.00151  -0.00002  -0.00006   0.00388
  28        4YY        -0.00097  -0.00125  -0.00008  -0.00006   0.01178
  29        4ZZ        -0.00151  -0.00184   0.00012   0.00012  -0.00821
  30        4XY         0.00000   0.00000   0.00001   0.00001   0.00016
  31        4XZ         0.00000   0.00000   0.00000   0.00000   0.00000
  32        4YZ        -0.00004   0.00001   0.00007  -0.00001   0.00026
  33 4   H  1S         -0.00009  -0.00004   0.00005  -0.00013   0.05822
  34        2S          0.00019   0.00007   0.00176   0.00133   0.01221
  35 5   H  1S          0.00002  -0.00014  -0.00009  -0.00002   0.05623
  36        2S          0.00179   0.00134  -0.00013  -0.00017   0.01347
  37 6   H  1S          0.00002  -0.00014  -0.00009  -0.00001   0.05668
  38        2S          0.00178   0.00133  -0.00017  -0.00020   0.01192
  39 7   C  1S         -0.06520   0.06470  -0.70106   0.70095  -0.11225
  40        2S         -0.00159   0.00158  -0.02006   0.01952   0.21262
  41        2PX         0.00001   0.00000   0.00006  -0.00007  -0.00816
  42        2PY         0.00009  -0.00016   0.00005  -0.00003   0.06679
  43        2PZ        -0.00009  -0.00002  -0.00024  -0.00007   0.00383
  44        3S         -0.00290   0.00194   0.01139  -0.00778   0.15795
  45        3PX        -0.00003   0.00001  -0.00014   0.00009   0.00142
  46        3PY        -0.00164   0.00103   0.00103  -0.00051   0.00452
  47        3PZ        -0.00008  -0.00003   0.00084   0.00021   0.00085
  48        4XX         0.00023  -0.00034   0.00116  -0.00147   0.00509
  49        4YY         0.00026  -0.00029   0.00101  -0.00128   0.01114
  50        4ZZ         0.00018  -0.00024   0.00161  -0.00193  -0.00874
  51        4XY        -0.00001   0.00001  -0.00007   0.00008   0.00075
  52        4XZ         0.00000   0.00000   0.00000   0.00000  -0.00002
  53        4YZ        -0.00006  -0.00001   0.00005   0.00001   0.00025
  54 8   H  1S          0.00008  -0.00003   0.00000  -0.00018   0.06930
  55        2S         -0.00023   0.00008  -0.00208   0.00154   0.01567
  56 9   C  1S         -0.70106   0.70095   0.06566  -0.06516  -0.10735
  57        2S         -0.01969   0.01916   0.00211  -0.00199   0.20343
  58        2PX         0.00000   0.00000   0.00000   0.00000  -0.00099
  59        2PY        -0.00004   0.00004  -0.00008   0.00015  -0.07401
  60        2PZ        -0.00025  -0.00007  -0.00004  -0.00001   0.00380
  61        3S          0.01037  -0.00710  -0.00492   0.00330   0.15541
  62        3PX         0.00002  -0.00001   0.00004  -0.00003  -0.00230
  63        3PY        -0.00077   0.00035   0.00178  -0.00109  -0.00663
  64        3PZ         0.00081   0.00021  -0.00024  -0.00006   0.00066
  65        4XX         0.00118  -0.00151   0.00002  -0.00006   0.00388
  66        4YY         0.00097  -0.00125   0.00008  -0.00006   0.01178
  67        4ZZ         0.00151  -0.00184  -0.00012   0.00012  -0.00821
  68        4XY         0.00000   0.00000  -0.00001   0.00001   0.00016
  69        4XZ         0.00000   0.00000   0.00000   0.00000   0.00000
  70        4YZ        -0.00004  -0.00001   0.00007   0.00001  -0.00026
  71 10  H  1S          0.00009  -0.00004  -0.00005  -0.00013   0.05822
  72        2S         -0.00019   0.00007  -0.00176   0.00133   0.01221
  73 11  H  1S         -0.00002  -0.00014   0.00009  -0.00002   0.05623
  74        2S         -0.00179   0.00134   0.00013  -0.00017   0.01347
  75 12  H  1S         -0.00002  -0.00014   0.00009  -0.00001   0.05668
  76        2S         -0.00178   0.00133   0.00017  -0.00020   0.01192
                           6         7         8         9        10
                           O         O         O         O         O
     Eigenvalues --    -1.01676  -0.79135  -0.77857  -0.64704  -0.63637
   1 1   C  1S         -0.11434   0.08168   0.08315  -0.00619  -0.00684
   2        2S          0.21515  -0.16004  -0.15948   0.01029   0.01136
   3        2PX        -0.00857   0.02401   0.02555   0.23654   0.24071
   4        2PY         0.06886   0.12688   0.12947   0.01613   0.01773
   5        2PZ         0.00294   0.00174  -0.00159  -0.00043   0.00037
   6        3S          0.16726  -0.14616  -0.16771   0.01951   0.02238
   7        3PX         0.00165   0.00219   0.00250   0.08831   0.09251
   8        3PY         0.00339   0.04933   0.04679   0.00173   0.00275
   9        3PZ         0.00002   0.00022   0.00319  -0.00019   0.00015
  10        4XX         0.00481  -0.01783  -0.01765  -0.00034  -0.00039
  11        4YY         0.01106   0.00113   0.00167   0.00172   0.00181
  12        4ZZ        -0.01019   0.00733   0.00864   0.00008  -0.00009
  13        4XY         0.00078  -0.00207  -0.00220  -0.01043  -0.01078
  14        4XZ         0.00000  -0.00003   0.00001  -0.00045   0.00037
  15        4YZ         0.00025  -0.00038   0.00040   0.00001  -0.00002
  16 2   H  1S          0.07044  -0.11844  -0.12054  -0.11816  -0.12024
  17        2S          0.01392  -0.05543  -0.05439  -0.07929  -0.07849
  18 3   C  1S         -0.10927  -0.08700  -0.08890   0.00265   0.00308
  19        2S          0.20542   0.16962   0.16991  -0.00502  -0.00532
  20        2PX        -0.00102   0.00587   0.00633   0.21069   0.21339
  21        2PY        -0.07643   0.10511   0.10590  -0.02808  -0.03104
  22        2PZ         0.00299  -0.00222   0.00204   0.00000  -0.00006
  23        3S          0.16518   0.16109   0.18338  -0.00733  -0.01069
  24        3PX        -0.00265   0.00378   0.00430   0.08435   0.08795
  25        3PY        -0.00605   0.04548   0.04257  -0.01041  -0.01097
  26        3PZ        -0.00019  -0.00039  -0.00288  -0.00007   0.00044
  27        4XX         0.00349   0.01702   0.01675  -0.00244  -0.00259
  28        4YY         0.01168   0.00005  -0.00041   0.00046   0.00059
  29        4ZZ        -0.00969  -0.00724  -0.00867   0.00038   0.00058
  30        4XY         0.00017  -0.00032  -0.00033   0.00760   0.00779
  31        4XZ         0.00000  -0.00001   0.00001  -0.00043   0.00037
  32        4YZ        -0.00024  -0.00032   0.00038   0.00007  -0.00006
  33 4   H  1S          0.05886  -0.09179  -0.09229   0.11837   0.12045
  34        2S          0.01028  -0.04224  -0.04041   0.08270   0.08132
  35 5   H  1S          0.05681   0.10339   0.10466   0.09178   0.09181
  36        2S          0.01176   0.04854   0.04682   0.06266   0.06050
  37 6   H  1S          0.05725   0.09905   0.09998  -0.11472  -0.11711
  38        2S          0.00996   0.04815   0.04660  -0.07896  -0.07778
  39 7   C  1S          0.11434   0.08168  -0.08315  -0.00619   0.00684
  40        2S         -0.21515  -0.16004   0.15948   0.01029  -0.01136
  41        2PX         0.00857   0.02401  -0.02555   0.23654  -0.24071
  42        2PY        -0.06886   0.12688  -0.12947   0.01613  -0.01773
  43        2PZ         0.00294  -0.00174  -0.00159   0.00043   0.00037
  44        3S         -0.16726  -0.14616   0.16771   0.01951  -0.02238
  45        3PX        -0.00165   0.00219  -0.00250   0.08831  -0.09251
  46        3PY        -0.00339   0.04933  -0.04679   0.00173  -0.00275
  47        3PZ         0.00002  -0.00022   0.00319   0.00019   0.00015
  48        4XX        -0.00481  -0.01783   0.01765  -0.00034   0.00039
  49        4YY        -0.01106   0.00113  -0.00167   0.00172  -0.00181
  50        4ZZ         0.01019   0.00733  -0.00864   0.00008   0.00009
  51        4XY        -0.00078  -0.00207   0.00220  -0.01043   0.01078
  52        4XZ         0.00000   0.00003   0.00001   0.00045   0.00037
  53        4YZ         0.00025   0.00038   0.00040  -0.00001  -0.00002
  54 8   H  1S         -0.07044  -0.11844   0.12054  -0.11816   0.12024
  55        2S         -0.01392  -0.05543   0.05439  -0.07929   0.07849
  56 9   C  1S          0.10927  -0.08700   0.08890   0.00265  -0.00308
  57        2S         -0.20542   0.16962  -0.16991  -0.00502   0.00532
  58        2PX         0.00102   0.00587  -0.00633   0.21069  -0.21339
  59        2PY         0.07643   0.10511  -0.10590  -0.02808   0.03104
  60        2PZ         0.00299   0.00222   0.00204   0.00000  -0.00006
  61        3S         -0.16518   0.16109  -0.18338  -0.00733   0.01069
  62        3PX         0.00265   0.00378  -0.00430   0.08435  -0.08795
  63        3PY         0.00605   0.04548  -0.04257  -0.01041   0.01097
  64        3PZ        -0.00019   0.00039  -0.00288   0.00007   0.00044
  65        4XX        -0.00349   0.01702  -0.01675  -0.00244   0.00259
  66        4YY        -0.01168   0.00005   0.00041   0.00046  -0.00059
  67        4ZZ         0.00969  -0.00724   0.00867   0.00038  -0.00058
  68        4XY        -0.00017  -0.00032   0.00033   0.00760  -0.00779
  69        4XZ         0.00000   0.00001   0.00001   0.00043   0.00037
  70        4YZ        -0.00024   0.00032   0.00038  -0.00007  -0.00006
  71 10  H  1S         -0.05886  -0.09179   0.09229   0.11837  -0.12045
  72        2S         -0.01028  -0.04224   0.04041   0.08270  -0.08132
  73 11  H  1S         -0.05681   0.10339  -0.10466   0.09178  -0.09181
  74        2S         -0.01176   0.04854  -0.04682   0.06266  -0.06050
  75 12  H  1S         -0.05725   0.09905  -0.09998  -0.11472   0.11711
  76        2S         -0.00996   0.04815  -0.04660  -0.07896   0.07778
                          11        12        13        14        15
                           O         O         O         O         O
     Eigenvalues --    -0.57256  -0.56452  -0.50970  -0.49981  -0.39948
   1 1   C  1S          0.01119   0.00993   0.00083   0.00128  -0.00554
   2        2S         -0.02369  -0.02214   0.00050  -0.00035   0.01018
   3        2PX        -0.00278  -0.00124  -0.20579  -0.20788   0.00110
   4        2PY        -0.28343  -0.28599   0.02046   0.02177  -0.00164
   5        2PZ        -0.00317   0.00253   0.00138  -0.00100   0.25422
   6        3S         -0.00523   0.00057  -0.00966  -0.01119   0.01809
   7        3PX         0.00190   0.00228  -0.12213  -0.13553   0.00082
   8        3PY        -0.10844  -0.11079   0.01254   0.01287  -0.00424
   9        3PZ        -0.00223   0.00124   0.00108  -0.00103   0.20150
  10        4XX         0.01785   0.01792  -0.00169  -0.00179   0.00091
  11        4YY        -0.00849  -0.00868  -0.00031  -0.00032   0.00056
  12        4ZZ        -0.00069  -0.00142  -0.00029  -0.00008  -0.00271
  13        4XY         0.00193   0.00191   0.02492   0.02525  -0.00010
  14        4XZ        -0.00002   0.00003   0.00026  -0.00018  -0.00091
  15        4YZ         0.00007   0.00001   0.00003  -0.00001   0.01669
  16 2   H  1S          0.08565   0.08653   0.11906   0.11909   0.00551
  17        2S          0.07212   0.06991   0.09291   0.08736  -0.00265
  18 3   C  1S          0.00827   0.00652  -0.00184  -0.00185  -0.00565
  19        2S         -0.01944  -0.01718   0.00411   0.00397   0.01038
  20        2PX         0.03142   0.03408   0.22130   0.22508  -0.00056
  21        2PY         0.28808   0.29128  -0.01682  -0.01750   0.00175
  22        2PZ        -0.00338   0.00276   0.00108  -0.00070   0.25402
  23        3S          0.00791   0.01642   0.00129   0.00189   0.01812
  24        3PX         0.01412   0.01599   0.13294   0.14722  -0.00039
  25        3PY         0.11226   0.11429  -0.00543  -0.00623   0.00435
  26        3PZ        -0.00232   0.00133   0.00080  -0.00062   0.20043
  27        4XX         0.01935   0.01948  -0.00096  -0.00105   0.00093
  28        4YY        -0.00865  -0.00886   0.00092   0.00093   0.00058
  29        4ZZ        -0.00063  -0.00154  -0.00007  -0.00006  -0.00268
  30        4XY         0.00257   0.00273   0.02564   0.02603  -0.00009
  31        4XZ        -0.00006   0.00005  -0.00034   0.00026  -0.00009
  32        4YZ        -0.00009   0.00003  -0.00008   0.00005  -0.01722
  33 4   H  1S          0.08106   0.08334  -0.13710  -0.13885   0.00683
  34        2S          0.06974   0.06847  -0.11778  -0.11283  -0.00036
  35 5   H  1S          0.10561   0.10910   0.13332   0.13482   0.00584
  36        2S          0.09026   0.08909   0.11208   0.10724  -0.00138
  37 6   H  1S          0.07064   0.07142  -0.14140  -0.14343   0.00669
  38        2S          0.06200   0.05991  -0.12179  -0.11700  -0.00054
  39 7   C  1S          0.01119  -0.00993   0.00083  -0.00128  -0.00554
  40        2S         -0.02369   0.02214   0.00050   0.00035   0.01018
  41        2PX        -0.00278   0.00124  -0.20579   0.20788   0.00110
  42        2PY        -0.28343   0.28599   0.02046  -0.02177  -0.00164
  43        2PZ         0.00317   0.00253  -0.00138  -0.00100  -0.25422
  44        3S         -0.00523  -0.00057  -0.00966   0.01119   0.01809
  45        3PX         0.00190  -0.00228  -0.12213   0.13553   0.00082
  46        3PY        -0.10844   0.11079   0.01254  -0.01287  -0.00424
  47        3PZ         0.00223   0.00124  -0.00108  -0.00103  -0.20150
  48        4XX         0.01785  -0.01792  -0.00169   0.00179   0.00091
  49        4YY        -0.00849   0.00868  -0.00031   0.00032   0.00056
  50        4ZZ        -0.00069   0.00142  -0.00029   0.00008  -0.00271
  51        4XY         0.00193  -0.00191   0.02492  -0.02525  -0.00010
  52        4XZ         0.00002   0.00003  -0.00026  -0.00018   0.00091
  53        4YZ        -0.00007   0.00001  -0.00003  -0.00001  -0.01669
  54 8   H  1S          0.08565  -0.08653   0.11906  -0.11909   0.00551
  55        2S          0.07212  -0.06991   0.09291  -0.08736  -0.00265
  56 9   C  1S          0.00827  -0.00652  -0.00184   0.00185  -0.00565
  57        2S         -0.01944   0.01718   0.00411  -0.00397   0.01038
  58        2PX         0.03142  -0.03408   0.22130  -0.22508  -0.00056
  59        2PY         0.28808  -0.29128  -0.01682   0.01750   0.00175
  60        2PZ         0.00338   0.00276  -0.00108  -0.00070  -0.25402
  61        3S          0.00791  -0.01642   0.00129  -0.00189   0.01812
  62        3PX         0.01412  -0.01599   0.13294  -0.14722  -0.00039
  63        3PY         0.11226  -0.11429  -0.00543   0.00623   0.00435
  64        3PZ         0.00232   0.00133  -0.00080  -0.00062  -0.20043
  65        4XX         0.01935  -0.01948  -0.00096   0.00105   0.00093
  66        4YY        -0.00865   0.00886   0.00092  -0.00093   0.00058
  67        4ZZ        -0.00063   0.00154  -0.00007   0.00006  -0.00268
  68        4XY         0.00257  -0.00273   0.02564  -0.02603  -0.00009
  69        4XZ         0.00006   0.00005   0.00034   0.00026   0.00009
  70        4YZ         0.00009   0.00003   0.00008   0.00005   0.01722
  71 10  H  1S          0.08106  -0.08334  -0.13710   0.13885   0.00683
  72        2S          0.06974  -0.06847  -0.11778   0.11283  -0.00036
  73 11  H  1S          0.10561  -0.10910   0.13332  -0.13482   0.00584
  74        2S          0.09026  -0.08909   0.11208  -0.10724  -0.00138
  75 12  H  1S          0.07064  -0.07142  -0.14140   0.14343   0.00669
  76        2S          0.06200  -0.05991  -0.12179   0.11700  -0.00054
                          16        17        18        19        20
                           O         V         V         V         V
     Eigenvalues --    -0.32029   0.14995   0.23306   0.24366   0.27939
   1 1   C  1S          0.00615   0.00779  -0.01184  -0.04822  -0.02017
   2        2S         -0.01887  -0.00836   0.01929   0.04702   0.02001
   3        2PX        -0.00095  -0.00001   0.00072   0.02483   0.15941
   4        2PY        -0.00054   0.01199  -0.01996  -0.09206  -0.01844
   5        2PZ         0.28164  -0.22694  -0.26499  -0.01106  -0.00590
   6        3S         -0.01473  -0.12703   0.19996   0.95766   0.27518
   7        3PX        -0.00061   0.00196  -0.00297   0.04735   0.52923
   8        3PY         0.00694  -0.02925   0.03498  -0.41028   0.00106
   9        3PZ         0.23572  -0.47624  -0.56241   0.00486  -0.00440
  10        4XX        -0.00245  -0.00112   0.00280  -0.00747   0.00025
  11        4YY        -0.00189  -0.00176   0.00384   0.00314  -0.00039
  12        4ZZ         0.00374   0.00492  -0.00623  -0.00406  -0.00127
  13        4XY         0.00009   0.00001  -0.00004   0.00175   0.01255
  14        4XZ        -0.00102   0.00115   0.00136   0.00003   0.00072
  15        4YZ         0.01834   0.01736   0.01799  -0.00110   0.00067
  16 2   H  1S         -0.00806  -0.01106   0.01703   0.00106   0.00725
  17        2S          0.00525   0.03738  -0.08248  -0.61191   0.57587
  18 3   C  1S          0.00626  -0.00762   0.01173  -0.05994   0.02800
  19        2S         -0.01923   0.00800  -0.01945   0.06203  -0.02803
  20        2PX         0.00031   0.00005   0.00017   0.01361   0.17319
  21        2PY         0.00037   0.01197  -0.02045   0.10388  -0.02909
  22        2PZ         0.28144   0.22754   0.26613  -0.01302   0.00873
  23        3S         -0.01386   0.12184  -0.19100   1.06426  -0.47848
  24        3PX         0.00023  -0.00097   0.00290   0.04731   0.55869
  25        3PY        -0.00724  -0.03006   0.03584   0.43112  -0.07149
  26        3PZ         0.23419   0.47662   0.56250   0.00463   0.00365
  27        4XX        -0.00255   0.00119  -0.00309  -0.00709   0.00023
  28        4YY        -0.00196   0.00178  -0.00398   0.00193   0.00050
  29        4ZZ         0.00371  -0.00480   0.00603  -0.00422   0.00272
  30        4XY         0.00008   0.00005  -0.00015  -0.00209  -0.01119
  31        4XZ        -0.00010  -0.00006  -0.00006   0.00003   0.00069
  32        4YZ        -0.01892   0.01671   0.01718   0.00097   0.00040
  33 4   H  1S         -0.00918  -0.01106   0.01678  -0.00580  -0.02084
  34        2S          0.00262   0.02886  -0.06956  -0.70785  -0.88071
  35 5   H  1S         -0.00851   0.01103  -0.01697  -0.01241  -0.00971
  36        2S          0.00338  -0.02838   0.06737  -0.79974  -0.45388
  37 6   H  1S         -0.00907   0.01071  -0.01619  -0.00408   0.01727
[...]
   R28        2.02810   0.00078   0.00000  -0.00030  -0.00030   2.02780
   R29        2.02788   0.00079   0.00000  -0.00008  -0.00007   2.02780
   R30        2.02792   0.00079   0.00000  -0.00013  -0.00013   2.02779
    A1        2.10754  -0.00022   0.00000  -0.00062  -0.00062   2.10691
    A2        2.04858   0.00006   0.00000   0.00109   0.00108   2.04966
    A3        1.33497   0.00060   0.00000  -0.00243  -0.00243   1.33254
    A4        1.81704   0.00096   0.00000  -0.00181  -0.00181   1.81523
    A5        2.15356   0.00099   0.00000  -0.00234  -0.00234   2.15122
    A6        1.70689   0.00061   0.00000  -0.00231  -0.00231   1.70458
    A7        2.10690  -0.00020   0.00000  -0.00001  -0.00001   2.10689
    A8        1.81461   0.00098   0.00000   0.00031   0.00031   1.81492
    A9        1.33221   0.00064   0.00000  -0.00001  -0.00001   1.33220
   A10        1.70430   0.00063   0.00000  -0.00001  -0.00001   1.70429
   A11        2.15056   0.00101   0.00000   0.00030   0.00030   2.15087
   A12        0.60820   0.00038   0.00000  -0.00010  -0.00010   0.60810
   A13        0.60773   0.00038   0.00000   0.00033   0.00033   0.60805
   A14        0.66752   0.00064   0.00000   0.00014   0.00014   0.66766
   A15        0.56654   0.00040   0.00000   0.00036   0.00036   0.56691
   A16        0.89992   0.00059   0.00000   0.00008   0.00008   0.90000
   A17        0.71127   0.00044   0.00000   0.00015   0.00014   0.71142
   A18        0.66769   0.00062   0.00000  -0.00001   0.00000   0.66769
   A19        0.71155   0.00044   0.00000  -0.00009  -0.00009   0.71146
   A20        0.89966   0.00057   0.00000   0.00032   0.00032   0.89998
   A21        0.49029   0.00026   0.00000   0.00020   0.00020   0.49048
   A22        2.10686  -0.00007   0.00000   0.00002   0.00002   2.10688
   A23        2.10745  -0.00007   0.00000  -0.00054  -0.00054   2.10691
   A24        2.04883  -0.00020   0.00000   0.00084   0.00084   2.04967
   A25        2.14981   0.00104   0.00000   0.00105   0.00105   2.15086
   A26        1.70364   0.00070   0.00000   0.00064   0.00064   1.70428
   A27        1.33138   0.00059   0.00000   0.00081   0.00081   1.33219
   A28        1.81395   0.00092   0.00000   0.00097   0.00097   1.81492
   A29        1.70699   0.00068   0.00000  -0.00241  -0.00241   1.70457
   A30        2.15355   0.00102   0.00000  -0.00234  -0.00234   2.15121
   A31        1.81723   0.00091   0.00000  -0.00200  -0.00200   1.81523
   A32        1.33506   0.00059   0.00000  -0.00252  -0.00252   1.33254
   A33        0.66774   0.00060   0.00000  -0.00005  -0.00005   0.66769
   A34        0.66753   0.00060   0.00000   0.00013   0.00013   0.66766
   A35        0.60773   0.00043   0.00000   0.00032   0.00032   0.60805
   A36        0.49020   0.00024   0.00000   0.00028   0.00028   0.49048
   A37        0.89971   0.00058   0.00000   0.00027   0.00027   0.89998
   A38        0.71129   0.00044   0.00000   0.00013   0.00013   0.71142
   A39        0.60810   0.00042   0.00000   0.00000   0.00000   0.60810
   A40        0.71148   0.00044   0.00000  -0.00002  -0.00002   0.71146
   A41        0.89983   0.00057   0.00000   0.00017   0.00017   0.90000
   A42        0.56665   0.00042   0.00000   0.00026   0.00026   0.56691
   A43        0.60820   0.00042   0.00000  -0.00010  -0.00010   0.60810
   A44        0.60773   0.00042   0.00000   0.00033   0.00033   0.60805
   A45        0.66752   0.00061   0.00000   0.00014   0.00014   0.66766
   A46        0.56654   0.00042   0.00000   0.00036   0.00036   0.56691
   A47        0.89992   0.00058   0.00000   0.00008   0.00008   0.90000
   A48        0.71127   0.00045   0.00000   0.00014   0.00014   0.71142
   A49        1.33497   0.00057   0.00000  -0.00242  -0.00243   1.33254
   A50        1.81461   0.00093   0.00000   0.00032   0.00031   1.81492
   A51        0.66769   0.00059   0.00000   0.00000   0.00000   0.66769
   A52        0.71155   0.00044   0.00000  -0.00009  -0.00009   0.71146
   A53        0.89966   0.00057   0.00000   0.00032   0.00032   0.89998
   A54        1.81704   0.00091   0.00000  -0.00180  -0.00181   1.81523
   A55        1.33221   0.00061   0.00000   0.00000  -0.00001   1.33220
   A56        0.49029   0.00023   0.00000   0.00020   0.00020   0.49048
   A57        2.15356   0.00101   0.00000  -0.00234  -0.00234   2.15122
   A58        1.70430   0.00070   0.00000   0.00000  -0.00001   1.70429
   A59        1.70689   0.00068   0.00000  -0.00231  -0.00231   1.70458
   A60        2.15056   0.00103   0.00000   0.00031   0.00030   2.15087
   A61        2.10754  -0.00009   0.00000  -0.00062  -0.00062   2.10691
   A62        2.04858  -0.00019   0.00000   0.00109   0.00108   2.04966
   A63        2.10690  -0.00007   0.00000  -0.00002  -0.00001   2.10689
   A64        0.66774   0.00063   0.00000  -0.00005  -0.00005   0.66769
   A65        0.66753   0.00063   0.00000   0.00013   0.00013   0.66766
   A66        0.60773   0.00039   0.00000   0.00032   0.00032   0.60805
   A67        0.49020   0.00026   0.00000   0.00028   0.00028   0.49048
   A68        0.89971   0.00058   0.00000   0.00027   0.00027   0.89998
   A69        0.71129   0.00044   0.00000   0.00013   0.00013   0.71142
   A70        2.14981   0.00102   0.00000   0.00104   0.00105   2.15086
   A71        1.70699   0.00062   0.00000  -0.00242  -0.00241   1.70457
   A72        0.60810   0.00038   0.00000   0.00000   0.00000   0.60810
   A73        0.71148   0.00044   0.00000  -0.00002  -0.00002   0.71146
   A74        0.89983   0.00057   0.00000   0.00017   0.00017   0.90000
   A75        1.70364   0.00064   0.00000   0.00063   0.00064   1.70428
   A76        2.15355   0.00100   0.00000  -0.00234  -0.00234   2.15121
   A77        0.56665   0.00039   0.00000   0.00026   0.00026   0.56691
   A78        1.33138   0.00063   0.00000   0.00080   0.00081   1.33219
   A79        1.81723   0.00097   0.00000  -0.00201  -0.00200   1.81523
   A80        1.81395   0.00097   0.00000   0.00097   0.00097   1.81492
   A81        1.33506   0.00063   0.00000  -0.00253  -0.00252   1.33254
   A82        2.10686  -0.00021   0.00000   0.00002   0.00002   2.10688
   A83        2.10745  -0.00021   0.00000  -0.00053  -0.00054   2.10691
   A84        2.04883   0.00005   0.00000   0.00084   0.00084   2.04967
    D1        2.92240  -0.00191   0.00000   0.00168   0.00168   2.92409
    D2        0.00014  -0.00002   0.00000  -0.00014  -0.00014   0.00000
    D3        0.00088   0.00003   0.00000  -0.00088  -0.00088   0.00000
    D4       -2.92138   0.00192   0.00000  -0.00270  -0.00270  -2.92409
    D5        0.00000  -0.00005   0.00000   0.00000   0.00000   0.00000
    D6       -0.87768   0.00008   0.00000  -0.00022  -0.00022  -0.87789
    D7        0.87768  -0.00008   0.00000   0.00022   0.00022   0.87789
    D8        0.00000   0.00005   0.00000   0.00000   0.00000   0.00000
    D9       -3.14079  -0.00002   0.00000  -0.00074  -0.00074  -3.14153
   D10        2.20545   0.00011   0.00000  -0.00113  -0.00113   2.20432
   D11       -2.20401  -0.00014   0.00000  -0.00019  -0.00019  -2.20420
   D12       -3.14095  -0.00001   0.00000  -0.00058  -0.00058  -3.14153
   D13       -1.05566  -0.00021   0.00000  -0.00077  -0.00077  -1.05643
   D14        3.14079   0.00002   0.00000   0.00074   0.00074   3.14153
   D15        2.20401   0.00005   0.00000   0.00019   0.00019   2.20420
   D16       -2.20545  -0.00002   0.00000   0.00113   0.00113  -2.20432
   D17        3.14095   0.00001   0.00000   0.00058   0.00058   3.14153
   D18        1.89398  -0.00072   0.00000  -0.00010  -0.00010   1.89388
   D19        0.00000   0.00005   0.00000   0.00000   0.00000   0.00000
   D20       -0.87759   0.00008   0.00000  -0.00031  -0.00031  -0.87789
   D21        0.87759  -0.00007   0.00000   0.00031   0.00031   0.87789
   D22        0.00000  -0.00005   0.00000   0.00000   0.00000   0.00000
   D23       -1.89393   0.00069   0.00000   0.00000   0.00000  -1.89393
   D24       -1.05656  -0.00019   0.00000   0.00007   0.00007  -1.05649
   D25        1.05575   0.00019   0.00000   0.00069   0.00069   1.05644
   D26        1.05647   0.00019   0.00000   0.00001   0.00001   1.05649
   D27        1.89411  -0.00070   0.00000  -0.00018  -0.00018   1.89393
   D28       -1.89384   0.00070   0.00000  -0.00004  -0.00004  -1.89388
   D29        0.00000   0.00000   0.00000   0.00000   0.00000   0.00000
   D30       -2.92240   0.00191   0.00000  -0.00168  -0.00168  -2.92409
   D31       -0.00014  -0.00004   0.00000   0.00015   0.00014   0.00000
   D32       -0.00088   0.00003   0.00000   0.00087   0.00088   0.00000
   D33        2.92138  -0.00192   0.00000   0.00270   0.00270   2.92409
         Item               Value     Threshold  Converged?
 Maximum Force            0.000073     0.000450     YES
 RMS     Force            0.000024     0.000300     YES
 Maximum Displacement     0.004531     0.001800     NO 
 RMS     Displacement     0.000770     0.001200     YES
 Predicted change in Energy=-8.016645D-07
 GradGradGradGradGradGradGradGradGradGradGradGradGradGradGradGradGradGrad

 Leave Link  103 at Fri Aug 17 21:51:29 2012, MaxMem=  943718400 cpu:       0.2
 (Enter /usr/local/gaussian-2009-C.01_sse2/g09/l9999.exe)

 Test job not archived.
 1\1\ WCSS.WROC.PL-SUPERNOVA-WN326\Freq\RCIS-FC\6-31G(d)\C4H8\BLASIAK\1
 7-Aug-2012\0\\#P Geom=AllCheck Guess=TCheck SCRF=Check Test GenChk RCI
 S(FC,Read)/6-31G(d) Freq\\CIS(NStates=4,Singlets)/6-31G(d) optimalisat
 ion of ethylene dimer\\0,1\C,-0.0318709795,-0.0000068905,0.0013116139\
 H,-0.053949227,-0.1025505137,1.0691391971\C,1.1883240713,0.0000025572,
 -0.6953890769\H,-0.9627237374,-0.1000437495,-0.5233957553\H,1.20950360
 44,-0.0992145117,-1.7636903395\H,2.1192398682,-0.1026848071,-0.1715020
 837\C,-0.0318709795,3.0000068905,0.0013116139\H,-0.053949227,3.1025505
 137,1.0691391971\C,1.1883240713,2.9999974428,-0.6953890769\H,-0.962723
 7374,3.1000437495,-0.5233957553\H,1.2095036044,3.0992145117,-1.7636903
 395\H,2.1192398682,3.1026848071,-0.1715020837\\Version=EM64L-G09RevC.0
 1\State=1-A'\HF=-156.0209537\RMSD=8.442e-10\RMSF=5.969e-03\ZeroPoint=0
 .1054047\Thermal=0.1115927\Dipole=-0.0001972,0.,-0.0004624\DipoleDeriv
 =0.0081837,0.1429642,0.0542835,0.012825,0.0347708,-0.0078409,0.0543155
 ,-0.0812515,0.0720185,0.0400754,-0.0639015,-0.0103977,-0.0200121,-0.01
 73343,0.0444532,0.0082595,0.1247253,-0.079978,0.0081269,-0.1426529,0.0
 542845,-0.013241,0.0334053,0.0064556,0.0542125,0.0818371,0.0721155,-0.
 0482797,-0.1402288,-0.0438487,-0.0479,-0.0171622,-0.0049954,-0.062646,
 -0.0087358,0.0079444,0.0399944,0.0637184,-0.0105805,0.0199803,-0.01674
 43,-0.0434308,0.008254,-0.1250876,-0.0802393,-0.0481007,0.140041,-0.04
 37411,0.0483861,-0.0169352,0.005467,-0.0623955,0.0083817,0.0081388,0.0
 081837,-0.1429641,0.0542835,-0.0128251,0.0347708,0.0078409,0.0543155,0
 .0812514,0.0720185,0.0400754,0.0639015,-0.0103977,0.0200121,-0.0173343
 ,-0.0444532,0.0082595,-0.1247253,-0.079978,0.0081269,0.1426528,0.05428
 45,0.013241,0.0334052,-0.0064556,0.0542125,-0.0818371,0.0721155,-0.048
 2797,0.1402288,-0.0438487,0.0479,-0.0171622,0.0049954,-0.062646,0.0087
 358,0.0079444,0.0399944,-0.0637184,-0.0105805,-0.0199803,-0.0167443,0.
 0434308,0.008254,0.1250876,-0.0802393,-0.0481007,-0.140041,-0.0437411,
 -0.0483861,-0.0169352,-0.005467,-0.0623955,-0.0083817,0.0081388\Polar=
 50.114816,0.,153.8552585,-7.3732716,0.,41.4003347\PG=CS [X(C4H8)]\NIma
 g=1\\0.69731423,0.04076713,0.08847611,0.02123568,-0.02435783,0.7232427
 2,-0.06817781,-0.00252062,-0.00068039,0.06174484,-0.00572581,-0.029929
 26,0.03920312,0.00185222,0.01787185,0.00402323,0.03130640,-0.38752706,
 -0.00621802,-0.03362110,0.40607260,-0.29930714,-0.00741985,0.09903961,
 0.00468225,0.00335360,-0.00303346,0.69758899,0.00751017,-0.04696280,-0
 .00413792,-0.00262379,0.00550304,0.00034727,-0.04165349,0.08842929,0.0
 9911273,0.00437540,-0.18238106,0.03356346,-0.00213909,-0.01112604,0.02
 143441,0.02246503,0.72291432,-0.30592284,-0.02747235,-0.13651856,0.005
 48325,0.00059380,0.00238295,-0.02044069,-0.00155005,-0.01785207,0.3220
 1539,-0.03589939,-0.02983971,-0.01450765,0.00371649,0.00794576,0.00151
 162,0.00355142,0.00550558,-0.00180297,0.02904999,0.01779482,-0.1412427
 2,-0.01324201,-0.14936342,-0.02812265,-0.00389385,-0.00972718,0.018764
 82,0.00203687,0.01394583,0.14761250,0.01497300,0.14542712,0.00466343,0
 .00252650,0.03359392,-0.00512021,0.00050564,0.00243365,-0.06819317,0.0
 0256322,-0.00097520,0.00151589,-0.00032173,-0.00076757,0.06179187,-0.0
 0333436,0.00550450,0.00212767,-0.00050388,0.00109220,0.00143397,0.0057
 3155,-0.02974230,-0.03804056,0.00070803,-0.00012270,0.00003959,-0.0018
 7689,0.01771257,-0.00304510,-0.00028519,-0.01115756,0.00243364,-0.0014
 3898,0.00048865,0.00377546,-0.03018799,-0.38740183,0.00029337,0.000623
 56,0.00123631,-0.00595175,0.03239453,0.40595107,-0.02041242,0.00163063
 ,-0.01783425,0.00151368,-0.00070845,0.00029254,-0.30618050,0.02824111,
 -0.13645754,-0.00309056,0.00149971,0.00362915,0.00546794,-0.00059269,0
 .00237448,0.32226182,-0.00355205,0.00550607,0.00180578,0.00032059,-0.0
 0012065,-0.00062766,0.03666699,-0.02997593,0.01499885,-0.00150598,0.00
 108546,-0.00029600,-0.00363446,0.00793712,-0.00145177,-0.02989296,0.01
 792178,0.01874586,-0.00208416,0.01395758,-0.00077196,-0.00004200,0.001
 23028,-0.14114988,0.01376534,-0.14917678,0.00362824,0.00029630,-0.0015
 3906,-0.02812573,0.00397390,-0.00970087,0.14754242,-0.01552145,0.14520
 648,0.07391302,-0.00949862,-0.04770839,-0.00060940,0.00405755,0.000265
 25,-0.08217537,-0.00322748,0.04872658,-0.00011256,0.00123432,0.0003012
 8,0.00042230,0.00397025,-0.00023325,0.00040454,0.00322967,-0.00018116,
 0.69731424,0.00949864,0.02036124,-0.00540868,0.00006051,-0.00164175,-0
 .00121705,-0.00326008,-0.01125463,0.00184583,0.00107841,-0.00164805,0.
 00056672,0.00004888,0.00071197,-0.00006856,0.00008507,0.00071630,-0.00
 000565,-0.04076714,0.08847608,-0.04770839,0.00540867,0.01763430,0.0000
 0147,0.00102507,0.00021896,0.04875049,0.00186622,-0.02464411,0.0005514
 8,-0.00405022,-0.00028836,-0.00017877,-0.00133780,0.00014635,-0.000252
 29,-0.00277877,0.00016165,0.02123568,0.02435785,0.72324272,-0.00060940
 ,-0.00006051,0.00000147,0.00013083,0.00011700,-0.00003823,0.00041309,0
 .00004828,-0.00017465,0.00009463,0.00003179,-0.00005190,-0.00007568,0.
 00002546,0.00002521,-0.00007949,0.00007899,0.00003402,-0.06817781,0.00
 252062,-0.00068039,0.06174484,-0.00405756,-0.00164175,-0.00102506,-0.0
 0011700,0.00035352,0.00047740,0.00398035,0.00070573,-0.00133868,-0.000
 14221,-0.00100356,-0.00004948,0.00002552,0.00002315,-0.00001093,0.0001
 8190,-0.00080003,0.00001486,0.00572582,-0.02992924,-0.03920313,-0.0018
 5222,0.01787184,0.00026525,0.00121706,0.00021896,-0.00003823,-0.000477
 40,0.00017894,-0.00024616,-0.00007134,0.00015216,-0.00001893,-0.000144
 15,0.00005142,0.00002493,-0.00001040,-0.00003133,0.00013225,-0.0001632
 8,0.00001860,0.00402323,-0.03130640,-0.38752706,-0.00621802,0.03362110
 ,0.40607261,-0.08217537,0.00326006,0.04875049,0.00041309,-0.00398034,-
 0.00024616,0.07394459,0.00947025,-0.04769154,0.00039901,-0.00323303,-0
 .00019252,-0.00061708,-0.00405217,0.00025198,-0.00011398,-0.00123451,0
 .00029679,-0.29930714,0.00741986,0.09903961,0.00468225,-0.00335361,-0.
 00303346,0.69758899,0.00322749,-0.01125462,-0.00186623,-0.00004828,0.0
 0070573,0.00007134,-0.00947025,0.02037879,0.00542771,-0.00008443,0.000
 71797,0.00000796,-0.00006090,-0.00166973,0.00121593,-0.00107645,-0.001
 63502,-0.00056812,-0.00751016,-0.04696281,0.00413792,0.00262379,0.0055
 0304,-0.00034726,0.04165348,0.08842928,0.04872659,-0.00184582,-0.02464
 411,-0.00017465,0.00133867,0.00015216,-0.04769154,-0.00542771,0.017612
 25,-0.00024908,0.00277544,0.00016968,0.00000356,-0.00102933,0.00021317
 ,0.00055934,0.00404540,-0.00027758,0.09911273,-0.00437541,-0.18238106,
 0.03356346,0.00213909,-0.01112604,0.02143441,-0.02246503,0.72291431,-0
 .00011256,-0.00107841,0.00055148,0.00009463,0.00014221,-0.00001893,0.0
 0039901,0.00008443,-0.00024908,0.00020302,0.00047008,0.00000426,-0.000
 07979,0.00018344,0.00013411,-0.00006475,0.00002170,0.00003172,-0.30592
 284,0.02747235,-0.13651856,0.00548325,-0.00059380,0.00238295,-0.020440
 70,0.00155006,-0.01785207,0.32201539,-0.00123433,-0.00164805,0.0040502
 2,-0.00003179,-0.00100355,0.00014415,0.00323304,0.00071798,-0.00277544
 ,-0.00047008,0.00034687,-0.00014157,0.00007800,-0.00079965,-0.00016679
 ,0.00002164,0.00001721,-0.00001671,0.03589939,-0.02983969,0.01450764,-
 0.00371649,0.00794576,-0.00151162,-0.00355143,0.00550559,0.00180298,-0
 .02904999,0.01779481,0.00030128,-0.00056672,-0.00028836,-0.00005190,0.
 00004948,0.00005142,-0.00019252,-0.00000796,0.00016968,0.00000426,0.00
 014157,0.00011050,0.00003395,0.00001749,0.00001948,0.00003138,-0.00001
 627,-0.00004233,-0.14124272,0.01324201,-0.14936341,-0.02812265,0.00389
 385,-0.00972718,0.01876483,-0.00203687,0.01394583,0.14761250,-0.014973
 00,0.14542712,0.00042231,-0.00004888,-0.00017877,-0.00007568,-0.000025
 52,0.00002493,-0.00061708,0.00006091,0.00000356,-0.00007979,-0.0000780
 0,0.00003395,0.00013097,-0.00011737,-0.00003838,0.00009354,-0.00002885
 ,-0.00005261,0.00466343,-0.00252650,0.03359392,-0.00512021,-0.00050564
 ,0.00243365,-0.06819317,-0.00256322,-0.00097520,0.00151589,0.00032173,
 -0.00076757,0.06179187,-0.00397025,0.00071197,0.00133781,-0.00002546,0
 .00002315,0.00001040,0.00405217,-0.00166973,0.00102932,-0.00018344,-0.
 00079965,-0.00001749,0.00011737,0.00035391,-0.00047646,0.00014137,-0.0
 0100104,0.00004552,0.00333436,0.00550450,-0.00212767,0.00050388,0.0010
 9220,-0.00143397,-0.00573155,-0.02974230,0.03804056,-0.00070804,-0.000
 12270,-0.00003959,0.00187689,0.01771257,-0.00023325,0.00006856,0.00014
 635,0.00002521,0.00001093,-0.00003133,0.00025198,-0.00121593,0.0002131
 7,0.00013411,0.00016679,0.00001948,-0.00003838,0.00047646,0.00018412,-
 0.00001978,0.00014735,0.00005246,-0.00304510,0.00028519,-0.01115756,0.
 00243364,0.00143898,0.00048865,0.00377546,0.03018799,-0.38740183,0.000
 29337,-0.00062356,0.00123631,-0.00595175,-0.03239453,0.40595107,0.0004
 0455,-0.00008507,-0.00025229,-0.00007949,-0.00018190,0.00013225,-0.000
 11398,0.00107645,0.00055934,-0.00006475,-0.00002164,0.00003138,0.00009
 354,-0.00014137,-0.00001978,0.00020017,-0.00046913,0.00000230,-0.02041
 242,-0.00163063,-0.01783424,0.00151368,0.00070845,0.00029254,-0.306180
 49,-0.02824112,-0.13645754,-0.00309056,-0.00149970,0.00362915,0.005467
 94,0.00059269,0.00237448,0.32226182,-0.00322968,0.00071630,0.00277877,
 -0.00007899,-0.00080002,0.00016328,0.00123453,-0.00163502,-0.00404540,
 -0.00002170,0.00001720,0.00001627,0.00002885,-0.00100104,-0.00014735,0
 .00046913,0.00034873,0.00014217,0.00355206,0.00550608,-0.00180579,-0.0
 0032059,-0.00012065,0.00062766,-0.03666700,-0.02997592,-0.01499885,0.0
 0150598,0.00108545,0.00029600,0.00363446,0.00793712,0.00145177,0.02989
 296,0.01792178,-0.00018117,0.00000565,0.00016165,0.00003402,-0.0000148
 6,0.00001860,0.00029680,0.00056812,-0.00027758,0.00003172,0.00001671,-
 0.00004232,-0.00005261,-0.00004552,0.00005246,0.00000230,-0.00014217,0
 .00010956,0.01874586,0.00208416,0.01395758,-0.00077196,0.00004200,0.00
 123028,-0.14114988,-0.01376533,-0.14917677,0.00362824,-0.00029630,-0.0
 0153906,-0.02812573,-0.00397390,-0.00970087,0.14754242,0.01552145,0.14
 520648\\0.00027677,-0.01788669,0.00005226,-0.00009412,-0.00006092,-0.0
 0009735,-0.00017784,-0.01792079,0.00010689,-0.00011597,-0.00005992,0.0
 0000839,0.00004774,-0.00003298,-0.00001689,0.00006341,-0.00006201,-0.0
 0005330,0.00027677,0.01788669,0.00005226,-0.00009412,0.00006092,-0.000
 09735,-0.00017784,0.01792079,0.00010689,-0.00011597,0.00005992,0.00000
 839,0.00004774,0.00003298,-0.00001689,0.00006341,0.00006201,-0.0000533
 0\\\@


 THE GREAT THING ABOUT BEING IMPERFECT IS THE JOY IT BRINGS OTHERS.
   -- SIGN OUTSIDE LAKE AGASSIZ JR. HIGH SCHOOL, FARGO, N.D.
 Job cpu time:  0 days  0 hours  1 minutes  3.1 seconds.
 File lengths (MBytes):  RWF=     96 Int=      0 D2E=      0 Chk=      3 Scr=      1
 Normal termination of Gaussian 09 at Fri Aug 17 21:51:30 2012.
