 Entering Gaussian System, Link 0=/usr/local/gaussian-2009-B.01/g09/g09
 Initial command:
 /usr/local/gaussian-2009-B.01/g09/l1.exe /lustre/scratch/tmp/pbs.3067573.nova/Gau-17734.inp -scrdir=/lustre/scratch/tmp/pbs.3067573.nova/
 Entering Link 1 = /usr/local/gaussian-2009-B.01/g09/l1.exe PID=     17735.
  
 Copyright (c) 1988,1990,1992,1993,1995,1998,2003,2009,2010,
            Gaussian, Inc.  All Rights Reserved.
  
 This is part of the Gaussian(R) 09 program.  It is based on
 the Gaussian(R) 03 system (copyright 2003, Gaussian, Inc.),
 the Gaussian(R) 98 system (copyright 1998, Gaussian, Inc.),
 the Gaussian(R) 94 system (copyright 1995, Gaussian, Inc.),
 the Gaussian 92(TM) system (copyright 1992, Gaussian, Inc.),
 the Gaussian 90(TM) system (copyright 1990, Gaussian, Inc.),
 the Gaussian 88(TM) system (copyright 1988, Gaussian, Inc.),
 the Gaussian 86(TM) system (copyright 1986, Carnegie Mellon
 University), and the Gaussian 82(TM) system (copyright 1983,
 Carnegie Mellon University). Gaussian is a federally registered
 trademark of Gaussian, Inc.
  
 This software contains proprietary and confidential information,
 including trade secrets, belonging to Gaussian, Inc.
  
 This software is provided under written license and may be
 used, copied, transmitted, or stored only in accord with that
 written license.
  
 The following legend is applicable only to US Government
 contracts under FAR:
  
                    RESTRICTED RIGHTS LEGEND
  
 Use, reproduction and disclosure by the US Government is
 subject to restrictions as set forth in subparagraphs (a)
 and (c) of the Commercial Computer Software - Restricted
 Rights clause in FAR 52.227-19.
  
 Gaussian, Inc.
 340 Quinnipiac St., Bldg. 40, Wallingford CT 06492
  
  
 ---------------------------------------------------------------
 Warning -- This program may not be used in any manner that
 competes with the business of Gaussian, Inc. or will provide
 assistance to any competitor of Gaussian, Inc.  The licensee
 of this program is prohibited from giving any competitor of
 Gaussian, Inc. access to this program.  By using this program,
 the user acknowledges that Gaussian, Inc. is engaged in the
 business of creating and licensing software in the field of
 computational chemistry and represents and warrants to the
 licensee that it is not a competitor of Gaussian, Inc. and that
 it will not use this program in any manner prohibited above.
 ---------------------------------------------------------------
  

 Cite this work as:
 Gaussian 09, Revision B.01,
 M. J. Frisch, G. W. Trucks, H. B. Schlegel, G. E. Scuseria, 
 M. A. Robb, J. R. Cheeseman, G. Scalmani, V. Barone, B. Mennucci, 
 G. A. Petersson, H. Nakatsuji, M. Caricato, X. Li, H. P. Hratchian, 
 A. F. Izmaylov, J. Bloino, G. Zheng, J. L. Sonnenberg, M. Hada, 
 M. Ehara, K. Toyota, R. Fukuda, J. Hasegawa, M. Ishida, T. Nakajima, 
 Y. Honda, O. Kitao, H. Nakai, T. Vreven, J. A. Montgomery, Jr., 
 J. E. Peralta, F. Ogliaro, M. Bearpark, J. J. Heyd, E. Brothers, 
 K. N. Kudin, V. N. Staroverov, T. Keith, R. Kobayashi, J. Normand, 
 K. Raghavachari, A. Rendell, J. C. Burant, S. S. Iyengar, J. Tomasi, 
 M. Cossi, N. Rega, J. M. Millam, M. Klene, J. E. Knox, J. B. Cross, 
 V. Bakken, C. Adamo, J. Jaramillo, R. Gomperts, R. E. Stratmann, 
 O. Yazyev, A. J. Austin, R. Cammi, C. Pomelli, J. W. Ochterski, 
 R. L. Martin, K. Morokuma, V. G. Zakrzewski, G. A. Voth, 
 P. Salvador, J. J. Dannenberg, S. Dapprich, A. D. Daniels, 
 O. Farkas, J. B. Foresman, J. V. Ortiz, J. Cioslowski, 
 and D. J. Fox, Gaussian, Inc., Wallingford CT, 2010.
 
 ******************************************
 Gaussian 09:  EM64L-G09RevB.01 12-Aug-2010
                21-Oct-2012 
 ******************************************
 %nproc=1
 Will use up to    1 processors via shared memory.
 %mem=1600MB
 %chk=e2.cis-6-31Gd.chk
 Default route:  MAXDISK=100GB SCF=DIRECT
 ------------------------------------------------------
 #p CIS(NStates=4,Singlets)/6-31G(d) IOP(9/33=2) nosymm
 ------------------------------------------------------
 1/38=1/1;
 2/12=2,15=1,17=6,18=5,40=1/2;
 3/5=1,6=6,7=1,11=9,16=1,25=1,30=1/1,2,8,3;
 4//1;
 5/5=2,38=5/2;
 8/6=1,10=2,108=4/1,4;
 9/33=2,41=4,42=3,48=1/14;
 6/7=2,8=2,9=2,10=2/1;
 99/5=1,9=1/99;
 Leave Link    1 at Sun Oct 21 14:50:19 2012, MaxMem=  209715200 cpu:       0.0
 (Enter /usr/local/gaussian-2009-B.01/g09/l101.exe)
 ----------------------------------------------------------------------
 CIS/6-31G(d) calculations of the transition density matrix for ethylen
 e
 ----------------------------------------------------------------------
 Symbolic Z-matrix:
 Charge =  0 Multiplicity = 1
 C                    -0.03187   3.00001   0.00131 
 H                    -0.05395   3.10255   1.06914 
 C                     1.18832   3.       -0.69539 
 H                    -0.96272   3.10004  -0.5234 
 H                     1.2095    3.09922  -1.76369 
 H                     2.11924   3.10269  -0.1715 
 
 NAtoms=      6 NQM=      6 NQMF=      0 NMic=      0 NMicF=      0 NTot=      6.
                    Isotopes and Nuclear Properties:
 (Nuclear quadrupole moments (NQMom) in fm**2, nuclear magnetic moments (NMagM)
  in nuclear magnetons)

  Atom         1           2           3           4           5           6
 IAtWgt=          12           1          12           1           1           1
 AtmWgt=  12.0000000   1.0078250  12.0000000   1.0078250   1.0078250   1.0078250
 NucSpn=           0           1           0           1           1           1
 AtZEff=   0.0000000   0.0000000   0.0000000   0.0000000   0.0000000   0.0000000
 NQMom=    0.0000000   0.0000000   0.0000000   0.0000000   0.0000000   0.0000000
 NMagM=    0.0000000   2.7928460   0.0000000   2.7928460   2.7928460   2.7928460
 Leave Link  101 at Sun Oct 21 14:50:19 2012, MaxMem=  209715200 cpu:       0.1
 (Enter /usr/local/gaussian-2009-B.01/g09/l202.exe)
                          Input orientation:                          
 ---------------------------------------------------------------------
 Center     Atomic      Atomic             Coordinates (Angstroms)
 Number     Number       Type             X           Y           Z
 ---------------------------------------------------------------------
      1          6           0       -0.031871    3.000007    0.001312
      2          1           0       -0.053949    3.102551    1.069139
      3          6           0        1.188324    2.999997   -0.695389
      4          1           0       -0.962724    3.100044   -0.523396
      5          1           0        1.209504    3.099215   -1.763690
      6          1           0        2.119240    3.102685   -0.171502
 ---------------------------------------------------------------------
                    Distance matrix (angstroms):
                    1          2          3          4          5
     1  C    0.000000
     2  H    1.072967   0.000000
     3  C    1.405087   2.160398   0.000000
     4  H    1.073226   1.833588   2.160231   0.000000
     5  H    2.160113   3.101813   1.073108   2.501380   0.000000
     6  H    2.160483   2.502387   1.073130   3.101989   1.833765
                    6
     6  H    0.000000
 Symmetry turned off by external request.
 Stoichiometry    C2H4
 Framework group  C1[X(C2H4)]
 Deg. of freedom    12
 Full point group                 C1      NOp   1
 Rotational constants (GHZ):    147.6000756     27.7844031     23.4594179
 Leave Link  202 at Sun Oct 21 14:50:19 2012, MaxMem=  209715200 cpu:       0.0
 (Enter /usr/local/gaussian-2009-B.01/g09/l301.exe)
 Standard basis: 6-31G(d) (6D, 7F)
 Ernie: Thresh=  0.10000D-02 Tol=  0.10000D-05 Strict=F.
 Integral buffers will be    131072 words long.
 Raffenetti 1 integral format.
 Two-electron integral symmetry is turned off.
    38 basis functions,    72 primitive gaussians,    38 cartesian basis functions
     8 alpha electrons        8 beta electrons
       nuclear repulsion energy        32.6134885689 Hartrees.
 IExCor=    0 DFT=F Ex=HF Corr=None ExCW=0 ScaHFX=  1.000000
 ScaDFX=  1.000000  1.000000  1.000000  1.000000 ScalE2=  1.000000  1.000000
 IRadAn=      0 IRanWt=     -1 IRanGd=            0 ICorTp=0
 NAtoms=    6 NActive=    6 NUniq=    6 SFac= 1.00D+00 NAtFMM=   50 NAOKFM=F Big=F
 Leave Link  301 at Sun Oct 21 14:50:19 2012, MaxMem=  209715200 cpu:       0.0
 (Enter /usr/local/gaussian-2009-B.01/g09/l302.exe)
 NPDir=0 NMtPBC=     1 NCelOv=     1 NCel=       1 NClECP=     1 NCelD=      1
         NCelK=      1 NCelE2=     1 NClLst=     1 CellRange=     0.0.
 One-electron integrals computed using PRISM.
 NBasis=    38 RedAO= T  NBF=    38
 NBsUse=    38 1.00D-06 NBFU=    38
 Leave Link  302 at Sun Oct 21 14:50:20 2012, MaxMem=  209715200 cpu:       0.1
 (Enter /usr/local/gaussian-2009-B.01/g09/l308.exe)
 Leave Link  308 at Sun Oct 21 14:50:20 2012, MaxMem=  209715200 cpu:       0.0
 (Enter /usr/local/gaussian-2009-B.01/g09/l303.exe)
 DipDrv:  MaxL=1.
 Leave Link  303 at Sun Oct 21 14:50:20 2012, MaxMem=  209715200 cpu:       0.0
 (Enter /usr/local/gaussian-2009-B.01/g09/l401.exe)
 Harris functional with IExCor=  205 diagonalized for initial guess.
 ExpMin= 1.61D-01 ExpMax= 3.05D+03 ExpMxC= 4.57D+02 IAcc=1 IRadAn=         1 AccDes= 0.00D+00
 HarFok:  IExCor=  205 AccDes= 0.00D+00 IRadAn=         1 IDoV= 1
 ScaDFX=  1.000000  1.000000  1.000000  1.000000
 FoFCou: FMM=F IPFlag=           0 FMFlag=      100000 FMFlg1=           0
         NFxFlg=           0 DoJE=T BraDBF=F KetDBF=T FulRan=T
         Omega=  0.000000  0.000000  1.000000  0.000000  0.000000 ICntrl=     500 IOpCl=  0
         NMat0=    1 NMatS0=    1 NMatT0=    0 NMatD0=    1 NMtDS0=    0 NMtDT0=    0
         I1Cent=           4 NGrid=           0.
 Symmetry not used in FoFCou.
 Harris En= -78.1988353536436    
 Leave Link  401 at Sun Oct 21 14:50:20 2012, MaxMem=  209715200 cpu:       0.2
 (Enter /usr/local/gaussian-2009-B.01/g09/l502.exe)
 Closed shell SCF:
 Requested convergence on RMS density matrix=1.00D-08 within 128 cycles.
 Requested convergence on MAX density matrix=1.00D-06.
 Requested convergence on             energy=1.00D-06.
 No special actions if energy rises.
 Using DIIS extrapolation, IDIIS=  1040.
 Two-electron integral symmetry not used.
 Keep R1 ints in memory in canonical form, NReq=1117871.
 IEnd=       22946 IEndB=       22946 NGot=   209715200 MDV=   209435438
 LenX=   209435438 LenY=   209433553
 Symmetry not used in FoFDir.
 MinBra= 0 MaxBra= 2 Meth= 1.
 IRaf=       0 NMat=   1 IRICut=       1 DoRegI=T DoRafI=F ISym2E= 0 JSym2E=0.

 Cycle   1  Pass 1  IDiag  1:
 E= -77.9038533469184    
 DIIS: error= 6.34D-02 at cycle   1 NSaved=   1.
 NSaved= 1 IEnMin= 1 EnMin= -77.9038533469184     IErMin= 1 ErrMin= 6.34D-02
 ErrMax= 6.34D-02 EMaxC= 1.00D-01 BMatC= 1.46D-01 BMatP= 1.46D-01
 IDIUse=3 WtCom= 3.66D-01 WtEn= 6.34D-01
 Coeff-Com:  0.100D+01
 Coeff-En:   0.100D+01
 Coeff:      0.100D+01
 Gap=     0.528 Goal=   None    Shift=    0.000
 GapD=    0.528 DampG=2.000 DampE=0.500 DampFc=1.0000 IDamp=-1.
 RMSDP=9.53D-03 MaxDP=8.86D-02              OVMax= 1.28D-01

 Cycle   2  Pass 1  IDiag  1:
 E= -78.0078393862736     Delta-E=       -0.103986039355 Rises=F Damp=F
 DIIS: error= 1.67D-02 at cycle   2 NSaved=   2.
 NSaved= 2 IEnMin= 2 EnMin= -78.0078393862736     IErMin= 2 ErrMin= 1.67D-02
 ErrMax= 1.67D-02 EMaxC= 1.00D-01 BMatC= 1.38D-02 BMatP= 1.46D-01
 IDIUse=3 WtCom= 8.33D-01 WtEn= 1.67D-01
 Coeff-Com:  0.168D+00 0.832D+00
 Coeff-En:   0.000D+00 0.100D+01
 Coeff:      0.140D+00 0.860D+00
 Gap=     0.522 Goal=   None    Shift=    0.000
 RMSDP=2.78D-03 MaxDP=2.45D-02 DE=-1.04D-01 OVMax= 3.39D-02

 Cycle   3  Pass 1  IDiag  1:
 E= -78.0198303845841     Delta-E=       -0.011990998310 Rises=F Damp=F
 DIIS: error= 3.56D-03 at cycle   3 NSaved=   3.
 NSaved= 3 IEnMin= 3 EnMin= -78.0198303845841     IErMin= 3 ErrMin= 3.56D-03
 ErrMax= 3.56D-03 EMaxC= 1.00D-01 BMatC= 3.57D-04 BMatP= 1.38D-02
 IDIUse=3 WtCom= 9.64D-01 WtEn= 3.56D-02
 Coeff-Com: -0.223D-01 0.921D-01 0.930D+00
 Coeff-En:   0.000D+00 0.000D+00 0.100D+01
 Coeff:     -0.215D-01 0.888D-01 0.933D+00
 Gap=     0.514 Goal=   None    Shift=    0.000
 RMSDP=4.31D-04 MaxDP=3.89D-03 DE=-1.20D-02 OVMax= 7.07D-03

 Cycle   4  Pass 1  IDiag  1:
 E= -78.0202468484860     Delta-E=       -0.000416463902 Rises=F Damp=F
 DIIS: error= 3.44D-04 at cycle   4 NSaved=   4.
 NSaved= 4 IEnMin= 4 EnMin= -78.0202468484860     IErMin= 4 ErrMin= 3.44D-04
 ErrMax= 3.44D-04 EMaxC= 1.00D-01 BMatC= 3.16D-06 BMatP= 3.57D-04
 IDIUse=3 WtCom= 9.97D-01 WtEn= 3.44D-03
 Coeff-Com:  0.409D-02-0.280D-01-0.190D+00 0.121D+01
 Coeff-En:   0.000D+00 0.000D+00 0.000D+00 0.100D+01
 Coeff:      0.408D-02-0.279D-01-0.190D+00 0.121D+01
 Gap=     0.514 Goal=   None    Shift=    0.000
 RMSDP=7.40D-05 MaxDP=4.43D-04 DE=-4.16D-04 OVMax= 9.03D-04

 Cycle   5  Pass 1  IDiag  1:
 E= -78.0202525054433     Delta-E=       -0.000005656957 Rises=F Damp=F
 DIIS: error= 5.15D-05 at cycle   5 NSaved=   5.
 NSaved= 5 IEnMin= 5 EnMin= -78.0202525054433     IErMin= 5 ErrMin= 5.15D-05
 ErrMax= 5.15D-05 EMaxC= 1.00D-01 BMatC= 6.35D-08 BMatP= 3.16D-06
 IDIUse=1 WtCom= 1.00D+00 WtEn= 0.00D+00
 Coeff-Com:  0.176D-03-0.390D-03-0.698D-02-0.121D+00 0.113D+01
 Coeff:      0.176D-03-0.390D-03-0.698D-02-0.121D+00 0.113D+01
 Gap=     0.514 Goal=   None    Shift=    0.000
 RMSDP=1.47D-05 MaxDP=7.74D-05 DE=-5.66D-06 OVMax= 1.70D-04

 Cycle   6  Pass 1  IDiag  1:
 E= -78.0202526480310     Delta-E=       -0.000000142588 Rises=F Damp=F
 DIIS: error= 5.54D-06 at cycle   6 NSaved=   6.
 NSaved= 6 IEnMin= 6 EnMin= -78.0202526480310     IErMin= 6 ErrMin= 5.54D-06
 ErrMax= 5.54D-06 EMaxC= 1.00D-01 BMatC= 1.08D-09 BMatP= 6.35D-08
 IDIUse=1 WtCom= 1.00D+00 WtEn= 0.00D+00
 Coeff-Com: -0.976D-04 0.551D-03 0.459D-02 0.686D-02-0.256D+00 0.124D+01
 Coeff:     -0.976D-04 0.551D-03 0.459D-02 0.686D-02-0.256D+00 0.124D+01
 Gap=     0.514 Goal=   None    Shift=    0.000
 RMSDP=2.30D-06 MaxDP=1.85D-05 DE=-1.43D-07 OVMax= 2.14D-05

 Cycle   7  Pass 1  IDiag  1:
 E= -78.0202526503850     Delta-E=       -0.000000002354 Rises=F Damp=F
 DIIS: error= 7.60D-07 at cycle   7 NSaved=   7.
 NSaved= 7 IEnMin= 7 EnMin= -78.0202526503850     IErMin= 7 ErrMin= 7.60D-07
 ErrMax= 7.60D-07 EMaxC= 1.00D-01 BMatC= 1.71D-11 BMatP= 1.08D-09
 IDIUse=1 WtCom= 1.00D+00 WtEn= 0.00D+00
 Coeff-Com:  0.490D-05-0.346D-04-0.252D-03 0.140D-02 0.184D-02-0.799D-01
 Coeff-Com:  0.108D+01
 Coeff:      0.490D-05-0.346D-04-0.252D-03 0.140D-02 0.184D-02-0.799D-01
 Coeff:      0.108D+01
 Gap=     0.514 Goal=   None    Shift=    0.000
 RMSDP=2.09D-07 MaxDP=1.18D-06 DE=-2.35D-09 OVMax= 2.93D-06

 Cycle   8  Pass 1  IDiag  1:
 E= -78.0202526504178     Delta-E=       -0.000000000033 Rises=F Damp=F
 DIIS: error= 1.82D-07 at cycle   8 NSaved=   8.
 NSaved= 8 IEnMin= 8 EnMin= -78.0202526504178     IErMin= 8 ErrMin= 1.82D-07
 ErrMax= 1.82D-07 EMaxC= 1.00D-01 BMatC= 2.63D-12 BMatP= 1.71D-11
 IDIUse=1 WtCom= 1.00D+00 WtEn= 0.00D+00
 Coeff-Com:  0.673D-05-0.403D-04-0.325D-03-0.737D-04 0.154D-01-0.899D-01
 Coeff-Com:  0.212D+00 0.863D+00
 Coeff:      0.673D-05-0.403D-04-0.325D-03-0.737D-04 0.154D-01-0.899D-01
 Coeff:      0.212D+00 0.863D+00
 Gap=     0.514 Goal=   None    Shift=    0.000
 RMSDP=7.04D-08 MaxDP=4.53D-07 DE=-3.27D-11 OVMax= 1.14D-06

 Cycle   9  Pass 1  IDiag  1:
 E= -78.0202526504218     Delta-E=       -0.000000000004 Rises=F Damp=F
 DIIS: error= 7.05D-08 at cycle   9 NSaved=   9.
 NSaved= 9 IEnMin= 9 EnMin= -78.0202526504218     IErMin= 9 ErrMin= 7.05D-08
 ErrMax= 7.05D-08 EMaxC= 1.00D-01 BMatC= 2.33D-13 BMatP= 2.63D-12
 IDIUse=1 WtCom= 1.00D+00 WtEn= 0.00D+00
 Coeff-Com: -0.278D-07 0.323D-06 0.159D-05-0.157D-03 0.111D-02 0.661D-03
 Coeff-Com: -0.950D-01 0.132D+00 0.961D+00
 Coeff:     -0.278D-07 0.323D-06 0.159D-05-0.157D-03 0.111D-02 0.661D-03
 Coeff:     -0.950D-01 0.132D+00 0.961D+00
 Gap=     0.514 Goal=   None    Shift=    0.000
 RMSDP=2.89D-08 MaxDP=1.80D-07 DE=-4.04D-12 OVMax= 4.48D-07

 Cycle  10  Pass 1  IDiag  1:
 E= -78.0202526504222     Delta-E=        0.000000000000 Rises=F Damp=F
 DIIS: error= 2.19D-08 at cycle  10 NSaved=  10.
 NSaved=10 IEnMin=10 EnMin= -78.0202526504222     IErMin=10 ErrMin= 2.19D-08
 ErrMax= 2.19D-08 EMaxC= 1.00D-01 BMatC= 6.63D-15 BMatP= 2.33D-13
 IDIUse=1 WtCom= 1.00D+00 WtEn= 0.00D+00
 Coeff-Com: -0.454D-06 0.270D-05 0.218D-04 0.165D-04-0.110D-02 0.536D-02
 Coeff-Com: -0.140D-02-0.634D-01-0.124D+00 0.118D+01
 Coeff:     -0.454D-06 0.270D-05 0.218D-04 0.165D-04-0.110D-02 0.536D-02
 Coeff:     -0.140D-02-0.634D-01-0.124D+00 0.118D+01
 Gap=     0.514 Goal=   None    Shift=    0.000
 RMSDP=8.64D-09 MaxDP=6.13D-08 DE=-4.55D-13 OVMax= 1.31D-07

 SCF Done:  E(RHF) =  -78.0202526504     A.U. after   10 cycles
             Convg  =    0.8642D-08             -V/T =  2.0035
 KE= 7.774489189570D+01 PE=-2.462979179056D+02 EE= 5.791928479058D+01
 Leave Link  502 at Sun Oct 21 14:50:20 2012, MaxMem=  209715200 cpu:       0.1
 (Enter /usr/local/gaussian-2009-B.01/g09/l801.exe)
 ExpMin= 1.61D-01 ExpMax= 3.05D+03 ExpMxC= 4.57D+02 IAcc=1 IRadAn=         1 AccDes= 0.00D+00
 HarFok:  IExCor=  205 AccDes= 0.00D+00 IRadAn=         1 IDoV=-2
 ScaDFX=  1.000000  1.000000  1.000000  1.000000
 Largest valence mixing into a core orbital is  2.26D-04
 Largest core mixing into a valence orbital is  4.34D-05
 Range of M.O.s used for correlation:     3    38
 NBasis=    38 NAE=     8 NBE=     8 NFC=     2 NFV=     0
 NROrb=     36 NOA=     6 NOB=     6 NVA=    30 NVB=    30
 Leave Link  801 at Sun Oct 21 14:50:21 2012, MaxMem=  209715200 cpu:       0.0
 (Enter /usr/local/gaussian-2009-B.01/g09/l804.exe)
 Closed-shell transformation, MDV=   209715200 ITran=3 ISComp=1.
 Semi-Direct transformation.
 ModeAB=           2 MOrb=             6 LenV=     209530149
 LASXX=        41745 LTotXX=       41745 LenRXX=       41745
 LTotAB=       46386 MaxLAS=      160056 LenRXY=      160056
 NonZer=      171720 LenScr=      785920 LnRSAI=           0
 LnScr1=           0 LExtra=      220528 Total=      1208249
 MaxDsk= 13421772800 SrtSym=           F ITran=            3
 DoSDTr:  NPSUse=  1
 JobTyp=0 Pass  1:  I=   1 to   6.
 (rs|ai) integrals will be sorted in core.
 Complete sort for first half transformation.
 First half transformation complete.
 Complete sort for second half transformation.
 Second half transformation complete.
 Spin components of T(2) and E(2):
     alpha-alpha T2 =       0.1048559045D-01 E2=     -0.2895436367D-01
     alpha-beta  T2 =       0.7555136443D-01 E2=     -0.1996197727D+00
     beta-beta   T2 =       0.1048559045D-01 E2=     -0.2895436367D-01
 ANorm=    0.1047149724D+01
 E2 =    -0.2575285001D+00 EUMP2 =    -0.78277781150499D+02
 Leave Link  804 at Sun Oct 21 14:50:21 2012, MaxMem=  209715200 cpu:       0.2
 (Enter /usr/local/gaussian-2009-B.01/g09/l914.exe)
 RHF ground state
 MDV=   209715200 DFT=F DoStab=F Mixed=F DoRPA=F DoScal=F NonHer=F
 Making orbital integer symmetry assigments:
 Form IVOs with IExCor=    0 ScaHFX=  1.000000 ScaDFX=  1.000000  1.000000  1.000000  1.000000
 FoFJK:  IHMeth= 1 ICntrl=     0 DoSepK=F KAlg= 1 I1Cent= 0 FoldK=F
 FoFCou: FMM=F IPFlag=           0 FMFlag=      100000 FMFlg1=           0
         NFxFlg=           0 DoJE=F BraDBF=F KetDBF=F FulRan=T
         Omega=  0.000000  0.000000  1.000000  0.000000  0.000000 ICntrl=       0 IOpCl=  1
         NMat0=    1 NMatS0=    1 NMatT0=    0 NMatD0=    1 NMtDS0=    0 NMtDT0=    0
         I1Cent=           0 NGrid=           0.
 Symmetry not used in FoFCou.
 FoFCou:  KetSym=F NOpSet=  1 NOpAb=1 NOp=  1.
 FoFCou:  CnvScl= 1.00D+00 Thresh= 1.00D-10
 PrismS was handed   209695516 working-precision words and   136 shell-pairs
 FoFCou: LinMIO=F DoNuc=F BraDBF=F KetDBF=F HaveP=T PDBF=F HaveZ=F HaveW=F
         NIJTC =       6 NIJTAt=       0 NIJTCD=       0 NIJTT =       6
         IJTBeg=       1 IJTEnd=       6 KLTBeg=       1 KLTEnd=       6
         IPTBeg=       1 IPTEnd=       6 IPTBCv=       1 IPTECv=       6
         IZTBeg=       1 IZTEnd=       6 IZTBCv=       1 IZTECv=       6
         IWTBeg=       7 IWTEnd=       6 IWTBCv=       7 IWTECv=       6
         INTBeg=       1 INTEnd=       0 IFTBCv=       1 IFTECv=       6
 NCel replicated for PrismC:     1
 CoulSu:  IncDef=  1024 NBBP=           9316 NTPThr=   100 NPartT=    1 Incr=          93 LDynOK=F.
 CoulSu:  NPrtUS=   1 ThrOK=F IAlg=1 NPAlg=1 LenDen=           0.
 Enter PrismC: JobTyp=20 DoJE=F Cont=F.
 PrismC:  IPart=     0 DynPar=F LinDyn=F Incr=          93 UseFst=F UseS4=T.
 PrismC was handed   209695345 working-precision words and   136 shell-pairs
 IPart=  0 NShTot=        9313 NShNF=        9313 NShFF=           0 NBatch=         299 AvBLen=        31.1
 CoulSu:  NxtVal=             94.
 FoFCou EC=  24.0760906357     ENF=  24.0760906357    
 IMat=  1 1/2 <PG(P)>=          50.859887984565
 IMat=  1 EOne=-0.158018461897D+03 ETwo= 0.508598879846D+02 Energy=-0.107158573913D+03
 MkCIGS:  K=  1 S=1 I=   6 A=    1.
 MkCIGS:  K=  2 S=1 I=   5 A=    1.
 MkCIGS:  K=  3 S=1 I=   6 A=    2.
 MkCIGS:  K=  4 S=1 I=   4 A=    1.
 MkCIGS:  K=  5 S=1 I=   6 A=    3.
 MkCIGS:  K=  6 S=1 I=   6 A=    4.
 MkCIGS:  K=  7 S=1 I=   3 A=    1.
 MkCIGS:  K=  8 S=1 I=   6 A=    5.
 MkCIGS:  K=  9 S=1 I=   6 A=    6.
 MkCIGS:  K= 10 S=1 I=   5 A=    2.
 MkCIGS:  K= 11 S=1 I=   5 A=    3.
 MkCIGS:  K= 12 S=1 I=   5 A=    4.
 MkCIGS:  K= 13 S=1 I=   4 A=    2.
 MkCIGS:  K= 14 S=1 I=   4 A=    3.
 MkCIGS:  K= 15 S=1 I=   2 A=    1.
 MkCIGS:  K= 16 S=1 I=   4 A=    4.
    16 initial guesses have been made.
 Convergence on wavefunction:    0.001000000000000
 Davidson Disk Diagonalization:  ConvIn= 1.00D-03 SkipCon=T Conv= 1.00D-03.
 Max sub-space:   200 roots to seek:    16 dimension of matrix:    360
 OrtVec:  Test1= 1.00D+00 Test2= 1.00D-06
 OrtVec:  NIn=     16 NOld=      0 NBNew=     16 NBOld=     16
 OrtVc1:  Ph=1 IOff=     0 IPass= 1 DotMx1= 0.00D+00
 OrtVc1:  Ph=2 IOff=     0 IPass= 1 DotMx1= 0.00D+00
 OrtVc1:  IOff=     0 IS=     1 I=     1 K1=T IndO=     1 NNew1=     1 Dot= 1.00D+00 DotN= 1.00D+00 ElMax1= 7.00D-01 ElMax1N= 7.00D-01
 OrtVc1:  Ph=3 IOff=     0 NNewB=     0 IAdd=     2 IPass= 1 DotMx2= 0.00D+00
 OrtVc1:  IOff=     0 IS=     1 I=     2 K1=T IndO=     2 NNew1=     2 Dot= 1.00D+00 DotN= 1.00D+00 ElMax1= 7.00D-01 ElMax1N= 7.00D-01
 OrtVc1:  Ph=3 IOff=     0 NNewB=     0 IAdd=     3 IPass= 1 DotMx2= 2.19D-17
 OrtVc1:  IOff=     0 IS=     1 I=     3 K1=T IndO=     3 NNew1=     3 Dot= 1.00D+00 DotN= 1.00D+00 ElMax1= 7.05D-01 ElMax1N= 7.05D-01
 OrtVc1:  Ph=3 IOff=     0 NNewB=     0 IAdd=     4 IPass= 1 DotMx2= 0.00D+00
 OrtVc1:  IOff=     0 IS=     1 I=     4 K1=T IndO=     4 NNew1=     4 Dot= 1.00D+00 DotN= 1.00D+00 ElMax1= 7.00D-01 ElMax1N= 7.00D-01
 OrtVc1:  Ph=3 IOff=     0 NNewB=     0 IAdd=     5 IPass= 1 DotMx2= 1.24D-15
 OrtVc1:  IOff=     0 IS=     1 I=     5 K1=T IndO=     5 NNew1=     5 Dot= 1.00D+00 DotN= 1.00D+00 ElMax1= 7.02D-01 ElMax1N= 7.02D-01
 OrtVc1:  Ph=3 IOff=     0 NNewB=     0 IAdd=     6 IPass= 1 DotMx2= 2.57D-16
 OrtVc1:  IOff=     0 IS=     1 I=     6 K1=T IndO=     6 NNew1=     6 Dot= 1.00D+00 DotN= 1.00D+00 ElMax1= 6.93D-01 ElMax1N= 6.93D-01
 OrtVc1:  Ph=3 IOff=     0 NNewB=     0 IAdd=     7 IPass= 1 DotMx2= 0.00D+00
 OrtVc1:  IOff=     0 IS=     1 I=     7 K1=T IndO=     7 NNew1=     7 Dot= 1.00D+00 DotN= 1.00D+00 ElMax1= 7.00D-01 ElMax1N= 7.00D-01
 OrtVc1:  Ph=3 IOff=     0 NNewB=     0 IAdd=     8 IPass= 1 DotMx2= 1.15D-17
 OrtVc1:  IOff=     0 IS=     1 I=     8 K1=T IndO=     8 NNew1=     8 Dot= 1.00D+00 DotN= 1.00D+00 ElMax1= 7.00D-01 ElMax1N= 7.00D-01
 OrtVc1:  Ph=3 IOff=     0 NNewB=     0 IAdd=     9 IPass= 1 DotMx2= 4.57D-16
 OrtVc1:  IOff=     0 IS=     1 I=     9 K1=T IndO=     9 NNew1=     9 Dot= 1.00D+00 DotN= 1.00D+00 ElMax1= 6.80D-01 ElMax1N= 6.80D-01
 OrtVc1:  Ph=3 IOff=     0 NNewB=     0 IAdd=    10 IPass= 1 DotMx2= 2.19D-17
 OrtVc1:  IOff=     0 IS=     1 I=    10 K1=T IndO=    10 NNew1=    10 Dot= 1.00D+00 DotN= 1.00D+00 ElMax1= 7.05D-01 ElMax1N= 7.05D-01
 OrtVc1:  Ph=3 IOff=     0 NNewB=     0 IAdd=    11 IPass= 1 DotMx2= 1.24D-15
 OrtVc1:  IOff=     0 IS=     1 I=    11 K1=T IndO=    11 NNew1=    11 Dot= 1.00D+00 DotN= 1.00D+00 ElMax1= 7.02D-01 ElMax1N= 7.02D-01
 OrtVc1:  Ph=3 IOff=     0 NNewB=     0 IAdd=    12 IPass= 1 DotMx2= 2.57D-16
 OrtVc1:  IOff=     0 IS=     1 I=    12 K1=T IndO=    12 NNew1=    12 Dot= 1.00D+00 DotN= 1.00D+00 ElMax1= 6.93D-01 ElMax1N= 6.93D-01
 OrtVc1:  Ph=3 IOff=     0 NNewB=     0 IAdd=    13 IPass= 1 DotMx2= 2.19D-17
 OrtVc1:  IOff=     0 IS=     1 I=    13 K1=T IndO=    13 NNew1=    13 Dot= 1.00D+00 DotN= 1.00D+00 ElMax1= 7.05D-01 ElMax1N= 7.05D-01
 OrtVc1:  Ph=3 IOff=     0 NNewB=     0 IAdd=    14 IPass= 1 DotMx2= 1.24D-15
 OrtVc1:  IOff=     0 IS=     1 I=    14 K1=T IndO=    14 NNew1=    14 Dot= 1.00D+00 DotN= 1.00D+00 ElMax1= 7.02D-01 ElMax1N= 7.02D-01
 OrtVc1:  Ph=3 IOff=     0 NNewB=     0 IAdd=    15 IPass= 1 DotMx2= 0.00D+00
 OrtVc1:  IOff=     0 IS=     1 I=    15 K1=T IndO=    15 NNew1=    15 Dot= 1.00D+00 DotN= 1.00D+00 ElMax1= 7.00D-01 ElMax1N= 7.00D-01
 OrtVc1:  Ph=3 IOff=     0 NNewB=     0 IAdd=    16 IPass= 1 DotMx2= 2.57D-16
 OrtVc1:  IOff=     0 IS=     1 I=    16 K1=T IndO=    16 NNew1=    16 Dot= 1.00D+00 DotN= 1.00D+00 ElMax1= 6.93D-01 ElMax1N= 6.93D-01
 Iteration     1 Dimension    16 NMult    16
 OrtVec:  Test1= 1.00D+00 Test2= 1.00D-06
 OrtVec:  NIn=     16 NOld=      0 NBNew=     16 NBOld=     16
 OrtVc1:  Ph=1 IOff=     0 IPass= 1 DotMx1= 0.00D+00
 OrtVc1:  Ph=2 IOff=     0 IPass= 1 DotMx1= 0.00D+00
 OrtVc1:  IOff=     0 IS=     1 I=     1 K1=T IndO=     1 NNew1=     1 Dot= 1.00D+00 DotN= 1.00D+00 ElMax1= 5.87D-01 ElMax1N= 5.87D-01
 OrtVc1:  Ph=3 IOff=     0 NNewB=     0 IAdd=     2 IPass= 1 DotMx2= 4.18D-06
 OrtVc1:  Ph=3 IOff=     0 NNewB=     0 IAdd=     2 IPass= 2 DotMx2= 1.73D-18
 OrtVc1:  IOff=     0 IS=     1 I=     2 K1=T IndO=     2 NNew1=     2 Dot= 1.00D+00 DotN= 1.00D+00 ElMax1= 6.48D-01 ElMax1N= 6.48D-01
 OrtVc1:  Ph=3 IOff=     0 NNewB=     0 IAdd=     3 IPass= 1 DotMx2= 4.17D-06
 OrtVc1:  Ph=3 IOff=     0 NNewB=     0 IAdd=     3 IPass= 2 DotMx2= 6.22D-20
 OrtVc1:  IOff=     0 IS=     1 I=     3 K1=T IndO=     3 NNew1=     3 Dot= 1.00D+00 DotN= 1.00D+00 ElMax1= 7.04D-01 ElMax1N= 7.04D-01
 OrtVc1:  Ph=3 IOff=     0 NNewB=     0 IAdd=     4 IPass= 1 DotMx2= 1.22D-05
 OrtVc1:  Ph=3 IOff=     0 NNewB=     0 IAdd=     4 IPass= 2 DotMx2= 2.10D-16
 OrtVc1:  IOff=     0 IS=     1 I=     4 K1=T IndO=     4 NNew1=     4 Dot= 1.00D+00 DotN= 1.00D+00 ElMax1= 5.70D-01 ElMax1N= 5.70D-01
 OrtVc1:  Ph=3 IOff=     0 NNewB=     0 IAdd=     5 IPass= 1 DotMx2= 3.37D-06
 OrtVc1:  Ph=3 IOff=     0 NNewB=     0 IAdd=     5 IPass= 2 DotMx2= 9.65D-17
 OrtVc1:  IOff=     0 IS=     1 I=     5 K1=T IndO=     5 NNew1=     5 Dot= 1.00D+00 DotN= 1.00D+00 ElMax1= 6.50D-01 ElMax1N= 6.50D-01
 OrtVc1:  Ph=3 IOff=     0 NNewB=     0 IAdd=     6 IPass= 1 DotMx2= 5.52D-05
 OrtVc1:  Ph=3 IOff=     0 NNewB=     0 IAdd=     6 IPass= 2 DotMx2= 1.11D-17
 OrtVc1:  IOff=     0 IS=     1 I=     6 K1=T IndO=     6 NNew1=     6 Dot= 1.00D+00 DotN= 1.00D+00 ElMax1= 6.83D-01 ElMax1N= 6.83D-01
 OrtVc1:  Ph=3 IOff=     0 NNewB=     0 IAdd=     7 IPass= 1 DotMx2= 1.26D-04
 OrtVc1:  Ph=3 IOff=     0 NNewB=     0 IAdd=     7 IPass= 2 DotMx2= 2.60D-20
 OrtVc1:  IOff=     0 IS=     1 I=     7 K1=T IndO=     7 NNew1=     7 Dot= 1.00D+00 DotN= 1.00D+00 ElMax1= 6.88D-01 ElMax1N= 6.88D-01
 OrtVc1:  Ph=3 IOff=     0 NNewB=     0 IAdd=     8 IPass= 1 DotMx2= 3.55D-05
 OrtVc1:  Ph=3 IOff=     0 NNewB=     0 IAdd=     8 IPass= 2 DotMx2= 2.78D-17
 OrtVc1:  IOff=     0 IS=     1 I=     8 K1=T IndO=     8 NNew1=     8 Dot= 1.00D+00 DotN= 1.00D+00 ElMax1= 6.89D-01 ElMax1N= 6.89D-01
 OrtVc1:  Ph=3 IOff=     0 NNewB=     0 IAdd=     9 IPass= 1 DotMx2= 1.10D-04
 OrtVc1:  Ph=3 IOff=     0 NNewB=     0 IAdd=     9 IPass= 2 DotMx2= 2.04D-17
 OrtVc1:  IOff=     0 IS=     1 I=     9 K1=T IndO=     9 NNew1=     9 Dot= 1.00D+00 DotN= 1.00D+00 ElMax1= 6.87D-01 ElMax1N= 6.87D-01
 OrtVc1:  Ph=3 IOff=     0 NNewB=     0 IAdd=    10 IPass= 1 DotMx2= 1.12D-04
 OrtVc1:  Ph=3 IOff=     0 NNewB=     0 IAdd=    10 IPass= 2 DotMx2= 2.89D-18
 OrtVc1:  IOff=     0 IS=     1 I=    10 K1=T IndO=    10 NNew1=    10 Dot= 1.00D+00 DotN= 1.00D+00 ElMax1= 7.04D-01 ElMax1N= 7.04D-01
 OrtVc1:  Ph=3 IOff=     0 NNewB=     0 IAdd=    11 IPass= 1 DotMx2= 9.55D-05
 OrtVc1:  Ph=3 IOff=     0 NNewB=     0 IAdd=    11 IPass= 2 DotMx2= 6.17D-18
 OrtVc1:  IOff=     0 IS=     1 I=    11 K1=T IndO=    11 NNew1=    11 Dot= 1.00D+00 DotN= 1.00D+00 ElMax1= 6.99D-01 ElMax1N= 6.99D-01
 OrtVc1:  Ph=3 IOff=     0 NNewB=     0 IAdd=    12 IPass= 1 DotMx2= 9.57D-05
 OrtVc1:  Ph=3 IOff=     0 NNewB=     0 IAdd=    12 IPass= 2 DotMx2= 3.35D-18
 OrtVc1:  IOff=     0 IS=     1 I=    12 K1=T IndO=    12 NNew1=    12 Dot= 1.00D+00 DotN= 1.00D+00 ElMax1= 6.61D-01 ElMax1N= 6.61D-01
 OrtVc1:  Ph=3 IOff=     0 NNewB=     0 IAdd=    13 IPass= 1 DotMx2= 8.68D-05
 OrtVc1:  Ph=3 IOff=     0 NNewB=     0 IAdd=    13 IPass= 2 DotMx2= 2.16D-18
 OrtVc1:  IOff=     0 IS=     1 I=    13 K1=T IndO=    13 NNew1=    13 Dot= 1.00D+00 DotN= 1.00D+00 ElMax1= 7.05D-01 ElMax1N= 7.05D-01
 OrtVc1:  Ph=3 IOff=     0 NNewB=     0 IAdd=    14 IPass= 1 DotMx2= 6.74D-05
 OrtVc1:  Ph=3 IOff=     0 NNewB=     0 IAdd=    14 IPass= 2 DotMx2= 1.64D-16
 OrtVc1:  IOff=     0 IS=     1 I=    14 K1=T IndO=    14 NNew1=    14 Dot= 1.00D+00 DotN= 1.00D+00 ElMax1= 6.70D-01 ElMax1N= 6.70D-01
 OrtVc1:  Ph=3 IOff=     0 NNewB=     0 IAdd=    15 IPass= 1 DotMx2= 8.62D-05
 OrtVc1:  Ph=3 IOff=     0 NNewB=     0 IAdd=    15 IPass= 2 DotMx2= 1.58D-17
 OrtVc1:  IOff=     0 IS=     1 I=    15 K1=T IndO=    15 NNew1=    15 Dot= 1.00D+00 DotN= 1.00D+00 ElMax1= 6.90D-01 ElMax1N= 6.90D-01
 OrtVc1:  Ph=3 IOff=     0 NNewB=     0 IAdd=    16 IPass= 1 DotMx2= 1.58D-04
 OrtVc1:  Ph=3 IOff=     0 NNewB=     0 IAdd=    16 IPass= 2 DotMx2= 2.89D-17
 OrtVc1:  IOff=     0 IS=     1 I=    16 K1=T IndO=    16 NNew1=    16 Dot= 1.00D+00 DotN= 1.00D+00 ElMax1= 6.99D-01 ElMax1N= 6.99D-01
 Excitation Energies [eV] at current iteration:
 Root      1 :     9.459742912073400
 Root      2 :     9.634610388180715
 Root      3 :     9.857294807070742
 Root      4 :     9.922290207715506
 Root      5 :    10.141819065083050
 Root      6 :    11.328565424622000
 Root      7 :    12.490673758706250
 Root      8 :    13.223361490893180
 Root      9 :    14.232508893442430
 Root     10 :    14.439324241618060
 Root     11 :    15.712169356520260
 Root     12 :    15.865725196002020
 Root     13 :    15.954130140324280
 Root     14 :    16.405052030048250
 Root     15 :    16.738986562202780
 Root     16 :    18.461207588008020
 OrtVec:  Test1= 1.00D+00 Test2= 1.00D-06
 OrtVec:  NIn=     16 NOld=     16 NBNew=     16 NBOld=     32
 OrtVc1:  Ph=1 IOff=     0 IPass= 1 DotMx1= 7.97D-02
 OrtVc1:  Ph=1 IOff=     0 IPass= 2 DotMx1= 2.28D-17
 OrtVc1:  Ph=2 IOff=     0 IPass= 1 DotMx1= 0.00D+00
 OrtVc1:  IOff=     0 IS=     1 I=     1 K1=T IndO=     1 NNew1=     1 Dot= 4.89D-02 DotN= 4.89D-02 ElMax1= 6.87D-02 ElMax1N= 6.87D-02
 OrtVc1:  Ph=3 IOff=     0 NNewB=     0 IAdd=     2 IPass= 1 DotMx2= 8.25D-04
 OrtVc1:  Ph=3 IOff=     0 NNewB=     0 IAdd=     2 IPass= 2 DotMx2= 6.70D-19
 OrtVc1:  IOff=     0 IS=     1 I=     2 K1=T IndO=     2 NNew1=     2 Dot= 3.25D-03 DotN= 3.25D-03 ElMax1= 2.73D-02 ElMax1N= 2.73D-02
 OrtVc1:  Ph=3 IOff=     0 NNewB=     0 IAdd=     3 IPass= 1 DotMx2= 2.03D-04
 OrtVc1:  Ph=3 IOff=     0 NNewB=     0 IAdd=     3 IPass= 2 DotMx2= 1.73D-19
 OrtVc1:  IOff=     0 IS=     1 I=     3 K1=T IndO=     3 NNew1=     3 Dot= 9.91D-04 DotN= 9.91D-04 ElMax1= 1.20D-02 ElMax1N= 1.20D-02
 OrtVc1:  Ph=3 IOff=     0 NNewB=     0 IAdd=     4 IPass= 1 DotMx2= 1.36D-01
 OrtVc1:  Ph=3 IOff=     0 NNewB=     0 IAdd=     4 IPass= 2 DotMx2= 7.39D-17
 OrtVc1:  IOff=     0 IS=     1 I=     4 K1=T IndO=     4 NNew1=     4 Dot= 7.31D-03 DotN= 7.31D-03 ElMax1= 4.94D-02 ElMax1N= 4.94D-02
 OrtVc1:  Ph=3 IOff=     0 NNewB=     0 IAdd=     5 IPass= 1 DotMx2= 2.22D-02
 OrtVc1:  Ph=3 IOff=     0 NNewB=     0 IAdd=     5 IPass= 2 DotMx2= 5.46D-18
 OrtVc1:  IOff=     0 IS=     1 I=     5 K1=T IndO=     5 NNew1=     5 Dot= 3.19D-04 DotN= 3.19D-04 ElMax1= 9.60D-03 ElMax1N= 9.60D-03
 OrtVc1:  Ph=3 IOff=     0 NNewB=     0 IAdd=     6 IPass= 1 DotMx2= 5.13D-02
 OrtVc1:  Ph=3 IOff=     0 NNewB=     0 IAdd=     6 IPass= 2 DotMx2= 3.98D-17
 OrtVc1:  IOff=     0 IS=     1 I=     6 K1=T IndO=     6 NNew1=     6 Dot= 1.42D-03 DotN= 1.42D-03 ElMax1= 1.34D-02 ElMax1N= 1.34D-02
 OrtVc1:  Ph=3 IOff=     0 NNewB=     0 IAdd=     7 IPass= 1 DotMx2= 2.90D-05
 OrtVc1:  Ph=3 IOff=     0 NNewB=     0 IAdd=     7 IPass= 2 DotMx2= 4.91D-20
 OrtVc1:  IOff=     0 IS=     1 I=     7 K1=T IndO=     7 NNew1=     7 Dot= 3.73D-03 DotN= 3.73D-03 ElMax1= 2.86D-02 ElMax1N= 2.86D-02
 OrtVc1:  Ph=3 IOff=     0 NNewB=     0 IAdd=     8 IPass= 1 DotMx2= 1.01D-02
 OrtVc1:  Ph=3 IOff=     0 NNewB=     0 IAdd=     8 IPass= 2 DotMx2= 6.49D-18
 OrtVc1:  IOff=     0 IS=     1 I=     8 K1=T IndO=     8 NNew1=     8 Dot= 5.05D-04 DotN= 5.05D-04 ElMax1= 1.38D-02 ElMax1N= 1.38D-02
 OrtVc1:  Ph=3 IOff=     0 NNewB=     0 IAdd=     9 IPass= 1 DotMx2= 2.56D-02
 OrtVc1:  Ph=3 IOff=     0 NNewB=     0 IAdd=     9 IPass= 2 DotMx2= 8.17D-18
 OrtVc1:  IOff=     0 IS=     1 I=     9 K1=T IndO=     9 NNew1=     9 Dot= 1.10D-03 DotN= 1.10D-03 ElMax1= 1.43D-02 ElMax1N= 1.43D-02
 OrtVc1:  Ph=3 IOff=     0 NNewB=     0 IAdd=    10 IPass= 1 DotMx2= 2.80D-02
 OrtVc1:  Ph=3 IOff=     0 NNewB=     0 IAdd=    10 IPass= 2 DotMx2= 8.83D-18
 OrtVc1:  IOff=     0 IS=     1 I=    10 K1=T IndO=    10 NNew1=    10 Dot= 2.06D-02 DotN= 2.06D-02 ElMax1= 8.78D-02 ElMax1N= 8.78D-02
 OrtVc1:  Ph=3 IOff=     0 NNewB=     0 IAdd=    11 IPass= 1 DotMx2= 9.43D-03
 OrtVc1:  Ph=3 IOff=     0 NNewB=     0 IAdd=    11 IPass= 2 DotMx2= 2.44D-17
 OrtVc1:  IOff=     0 IS=     1 I=    11 K1=T IndO=    11 NNew1=    11 Dot= 1.53D-02 DotN= 1.53D-02 ElMax1= 6.18D-02 ElMax1N= 6.18D-02
 OrtVc1:  Ph=3 IOff=     0 NNewB=     0 IAdd=    12 IPass= 1 DotMx2= 2.34D-02
 OrtVc1:  Ph=3 IOff=     0 NNewB=     0 IAdd=    12 IPass= 2 DotMx2= 7.89D-18
 OrtVc1:  IOff=     0 IS=     1 I=    12 K1=T IndO=    12 NNew1=    12 Dot= 2.30D-02 DotN= 2.30D-02 ElMax1= 7.74D-02 ElMax1N= 7.74D-02
 OrtVc1:  Ph=3 IOff=     0 NNewB=     0 IAdd=    13 IPass= 1 DotMx2= 3.45D-03
 OrtVc1:  Ph=3 IOff=     0 NNewB=     0 IAdd=    13 IPass= 2 DotMx2= 6.31D-18
 OrtVc1:  IOff=     0 IS=     1 I=    13 K1=T IndO=    13 NNew1=    13 Dot= 1.50D-02 DotN= 1.50D-02 ElMax1= 4.51D-02 ElMax1N= 4.51D-02
 OrtVc1:  Ph=3 IOff=     0 NNewB=     0 IAdd=    14 IPass= 1 DotMx2= 1.22D-02
 OrtVc1:  Ph=3 IOff=     0 NNewB=     0 IAdd=    14 IPass= 2 DotMx2= 4.04D-17
 OrtVc1:  IOff=     0 IS=     1 I=    14 K1=T IndO=    14 NNew1=    14 Dot= 2.13D-02 DotN= 2.13D-02 ElMax1= 5.76D-02 ElMax1N= 5.76D-02
 OrtVc1:  Ph=3 IOff=     0 NNewB=     0 IAdd=    15 IPass= 1 DotMx2= 7.49D-02
 OrtVc1:  Ph=3 IOff=     0 NNewB=     0 IAdd=    15 IPass= 2 DotMx2= 7.89D-17
 OrtVc1:  IOff=     0 IS=     1 I=    15 K1=T IndO=    15 NNew1=    15 Dot= 7.71D-03 DotN= 7.71D-03 ElMax1= 4.72D-02 ElMax1N= 4.72D-02
 OrtVc1:  Ph=3 IOff=     0 NNewB=     0 IAdd=    16 IPass= 1 DotMx2= 6.15D-02
 OrtVc1:  Ph=3 IOff=     0 NNewB=     0 IAdd=    16 IPass= 2 DotMx2= 4.18D-18
 OrtVc1:  IOff=     0 IS=     1 I=    16 K1=T IndO=    16 NNew1=    16 Dot= 1.11D-02 DotN= 1.11D-02 ElMax1= 4.02D-02 ElMax1N= 4.02D-02
 Iteration     2 Dimension    32 NMult    32
 OrtVec:  Test1= 1.00D+00 Test2= 1.00D-06
 OrtVec:  NIn=     32 NOld=      0 NBNew=     32 NBOld=     32
 OrtVc1:  Ph=1 IOff=     0 IPass= 1 DotMx1= 0.00D+00
 OrtVc1:  Ph=2 IOff=     0 IPass= 1 DotMx1= 0.00D+00
 OrtVc1:  IOff=     0 IS=     1 I=     1 K1=T IndO=     1 NNew1=     1 Dot= 1.00D+00 DotN= 1.00D+00 ElMax1= 6.84D-01 ElMax1N= 6.84D-01
 OrtVc1:  Ph=3 IOff=     0 NNewB=     0 IAdd=     2 IPass= 1 DotMx2= 4.03D-05
 OrtVc1:  Ph=3 IOff=     0 NNewB=     0 IAdd=     2 IPass= 2 DotMx2= 1.08D-19
 OrtVc1:  IOff=     0 IS=     1 I=     2 K1=T IndO=     2 NNew1=     2 Dot= 1.00D+00 DotN= 1.00D+00 ElMax1= 6.71D-01 ElMax1N= 6.71D-01
 OrtVc1:  Ph=3 IOff=     0 NNewB=     0 IAdd=     3 IPass= 1 DotMx2= 1.28D-05
 OrtVc1:  Ph=3 IOff=     0 NNewB=     0 IAdd=     3 IPass= 2 DotMx2= 3.87D-18
 OrtVc1:  IOff=     0 IS=     1 I=     3 K1=T IndO=     3 NNew1=     3 Dot= 1.00D+00 DotN= 1.00D+00 ElMax1= 6.86D-01 ElMax1N= 6.86D-01
 OrtVc1:  Ph=3 IOff=     0 NNewB=     0 IAdd=     4 IPass= 1 DotMx2= 2.01D-05
 OrtVc1:  Ph=3 IOff=     0 NNewB=     0 IAdd=     4 IPass= 2 DotMx2= 1.43D-20
 OrtVc1:  IOff=     0 IS=     1 I=     4 K1=T IndO=     4 NNew1=     4 Dot= 1.00D+00 DotN= 1.00D+00 ElMax1= 7.05D-01 ElMax1N= 7.05D-01
 OrtVc1:  Ph=3 IOff=     0 NNewB=     0 IAdd=     5 IPass= 1 DotMx2= 7.50D-05
 OrtVc1:  Ph=3 IOff=     0 NNewB=     0 IAdd=     5 IPass= 2 DotMx2= 7.23D-17
 OrtVc1:  IOff=     0 IS=     1 I=     5 K1=T IndO=     5 NNew1=     5 Dot= 1.00D+00 DotN= 1.00D+00 ElMax1= 6.72D-01 ElMax1N= 6.72D-01
 OrtVc1:  Ph=3 IOff=     0 NNewB=     0 IAdd=     6 IPass= 1 DotMx2= 2.74D-05
 OrtVc1:  Ph=3 IOff=     0 NNewB=     0 IAdd=     6 IPass= 2 DotMx2= 1.79D-17
 OrtVc1:  IOff=     0 IS=     1 I=     6 K1=T IndO=     6 NNew1=     6 Dot= 1.00D+00 DotN= 1.00D+00 ElMax1= 6.95D-01 ElMax1N= 6.95D-01
 OrtVc1:  Ph=3 IOff=     0 NNewB=     0 IAdd=     7 IPass= 1 DotMx2= 1.14D-04
 OrtVc1:  Ph=3 IOff=     0 NNewB=     0 IAdd=     7 IPass= 2 DotMx2= 4.06D-20
 OrtVc1:  IOff=     0 IS=     1 I=     7 K1=T IndO=     7 NNew1=     7 Dot= 1.00D+00 DotN= 1.00D+00 ElMax1= 6.94D-01 ElMax1N= 6.94D-01
 OrtVc1:  Ph=3 IOff=     0 NNewB=     0 IAdd=     8 IPass= 1 DotMx2= 4.45D-05
 OrtVc1:  Ph=3 IOff=     0 NNewB=     0 IAdd=     8 IPass= 2 DotMx2= 2.80D-20
 OrtVc1:  IOff=     0 IS=     1 I=     8 K1=T IndO=     8 NNew1=     8 Dot= 1.00D+00 DotN= 1.00D+00 ElMax1= 6.94D-01 ElMax1N= 6.94D-01
 OrtVc1:  Ph=3 IOff=     0 NNewB=     0 IAdd=     9 IPass= 1 DotMx2= 1.26D-05
 OrtVc1:  Ph=3 IOff=     0 NNewB=     0 IAdd=     9 IPass= 2 DotMx2= 2.05D-17
 OrtVc1:  IOff=     0 IS=     1 I=     9 K1=T IndO=     9 NNew1=     9 Dot= 1.00D+00 DotN= 1.00D+00 ElMax1= 6.80D-01 ElMax1N= 6.80D-01
 OrtVc1:  Ph=3 IOff=     0 NNewB=     0 IAdd=    10 IPass= 1 DotMx2= 7.70D-05
 OrtVc1:  Ph=3 IOff=     0 NNewB=     0 IAdd=    10 IPass= 2 DotMx2= 6.87D-18
 OrtVc1:  IOff=     0 IS=     1 I=    10 K1=T IndO=    10 NNew1=    10 Dot= 1.00D+00 DotN= 1.00D+00 ElMax1= 6.94D-01 ElMax1N= 6.94D-01
 OrtVc1:  Ph=3 IOff=     0 NNewB=     0 IAdd=    11 IPass= 1 DotMx2= 1.40D-04
 OrtVc1:  Ph=3 IOff=     0 NNewB=     0 IAdd=    11 IPass= 2 DotMx2= 3.07D-18
 OrtVc1:  IOff=     0 IS=     1 I=    11 K1=T IndO=    11 NNew1=    11 Dot= 1.00D+00 DotN= 1.00D+00 ElMax1= 6.35D-01 ElMax1N= 6.35D-01
 OrtVc1:  Ph=3 IOff=     0 NNewB=     0 IAdd=    12 IPass= 1 DotMx2= 1.19D-04
 OrtVc1:  Ph=3 IOff=     0 NNewB=     0 IAdd=    12 IPass= 2 DotMx2= 2.30D-17
 OrtVc1:  IOff=     0 IS=     1 I=    12 K1=T IndO=    12 NNew1=    12 Dot= 1.00D+00 DotN= 1.00D+00 ElMax1= 6.83D-01 ElMax1N= 6.83D-01
 OrtVc1:  Ph=3 IOff=     0 NNewB=     0 IAdd=    13 IPass= 1 DotMx2= 7.73D-05
 OrtVc1:  Ph=3 IOff=     0 NNewB=     0 IAdd=    13 IPass= 2 DotMx2= 6.92D-19
 OrtVc1:  IOff=     0 IS=     1 I=    13 K1=T IndO=    13 NNew1=    13 Dot= 1.00D+00 DotN= 1.00D+00 ElMax1= 6.99D-01 ElMax1N= 6.99D-01
 OrtVc1:  Ph=3 IOff=     0 NNewB=     0 IAdd=    14 IPass= 1 DotMx2= 1.01D-04
 OrtVc1:  Ph=3 IOff=     0 NNewB=     0 IAdd=    14 IPass= 2 DotMx2= 4.86D-17
 OrtVc1:  IOff=     0 IS=     1 I=    14 K1=T IndO=    14 NNew1=    14 Dot= 1.00D+00 DotN= 1.00D+00 ElMax1= 6.62D-01 ElMax1N= 6.62D-01
 OrtVc1:  Ph=3 IOff=     0 NNewB=     0 IAdd=    15 IPass= 1 DotMx2= 1.10D-04
 OrtVc1:  Ph=3 IOff=     0 NNewB=     0 IAdd=    15 IPass= 2 DotMx2= 1.65D-16
 OrtVc1:  IOff=     0 IS=     1 I=    15 K1=T IndO=    15 NNew1=    15 Dot= 1.00D+00 DotN= 1.00D+00 ElMax1= 6.78D-01 ElMax1N= 6.78D-01
 OrtVc1:  Ph=3 IOff=     0 NNewB=     0 IAdd=    16 IPass= 1 DotMx2= 7.39D-05
 OrtVc1:  Ph=3 IOff=     0 NNewB=     0 IAdd=    16 IPass= 2 DotMx2= 2.01D-17
 OrtVc1:  IOff=     0 IS=     1 I=    16 K1=T IndO=    16 NNew1=    16 Dot= 1.00D+00 DotN= 1.00D+00 ElMax1= 6.95D-01 ElMax1N= 6.95D-01
 OrtVc1:  Ph=3 IOff=     0 NNewB=     0 IAdd=    17 IPass= 1 DotMx2= 4.53D-05
 OrtVc1:  Ph=3 IOff=     0 NNewB=     0 IAdd=    17 IPass= 2 DotMx2= 1.42D-16
 OrtVc1:  IOff=     0 IS=     1 I=    17 K1=T IndO=    17 NNew1=    17 Dot= 1.00D+00 DotN= 1.00D+00 ElMax1= 5.88D-01 ElMax1N= 5.88D-01
 OrtVc1:  Ph=3 IOff=     0 NNewB=     0 IAdd=    18 IPass= 1 DotMx2= 1.53D-04
 OrtVc1:  Ph=3 IOff=     0 NNewB=     0 IAdd=    18 IPass= 2 DotMx2= 4.17D-18
 OrtVc1:  IOff=     0 IS=     1 I=    18 K1=T IndO=    18 NNew1=    18 Dot= 1.00D+00 DotN= 1.00D+00 ElMax1= 5.96D-01 ElMax1N= 5.96D-01
 OrtVc1:  Ph=3 IOff=     0 NNewB=     0 IAdd=    19 IPass= 1 DotMx2= 1.69D-04
 OrtVc1:  Ph=3 IOff=     0 NNewB=     0 IAdd=    19 IPass= 2 DotMx2= 5.79D-17
 OrtVc1:  IOff=     0 IS=     1 I=    19 K1=T IndO=    19 NNew1=    19 Dot= 1.00D+00 DotN= 1.00D+00 ElMax1= 4.40D-01 ElMax1N= 4.40D-01
 OrtVc1:  Ph=3 IOff=     0 NNewB=     0 IAdd=    20 IPass= 1 DotMx2= 1.29D-04
 OrtVc1:  Ph=3 IOff=     0 NNewB=     0 IAdd=    20 IPass= 2 DotMx2= 1.42D-17
 OrtVc1:  IOff=     0 IS=     1 I=    20 K1=T IndO=    20 NNew1=    20 Dot= 1.00D+00 DotN= 1.00D+00 ElMax1= 4.85D-01 ElMax1N= 4.85D-01
 OrtVc1:  Ph=3 IOff=     0 NNewB=     0 IAdd=    21 IPass= 1 DotMx2= 2.15D-04
 OrtVc1:  Ph=3 IOff=     0 NNewB=     0 IAdd=    21 IPass= 2 DotMx2= 4.07D-17
 OrtVc1:  IOff=     0 IS=     1 I=    21 K1=T IndO=    21 NNew1=    21 Dot= 1.00D+00 DotN= 1.00D+00 ElMax1= 3.85D-01 ElMax1N= 3.85D-01
 OrtVc1:  Ph=3 IOff=     0 NNewB=     0 IAdd=    22 IPass= 1 DotMx2= 1.66D-04
 OrtVc1:  Ph=3 IOff=     0 NNewB=     0 IAdd=    22 IPass= 2 DotMx2= 1.24D-16
 OrtVc1:  IOff=     0 IS=     1 I=    22 K1=T IndO=    22 NNew1=    22 Dot= 1.00D+00 DotN= 1.00D+00 ElMax1= 4.89D-01 ElMax1N= 4.89D-01
 OrtVc1:  Ph=3 IOff=     0 NNewB=     0 IAdd=    23 IPass= 1 DotMx2= 2.33D-04
 OrtVc1:  Ph=3 IOff=     0 NNewB=     0 IAdd=    23 IPass= 2 DotMx2= 2.37D-16
 OrtVc1:  IOff=     0 IS=     1 I=    23 K1=T IndO=    23 NNew1=    23 Dot= 1.00D+00 DotN= 1.00D+00 ElMax1= 3.48D-01 ElMax1N= 3.48D-01
 OrtVc1:  Ph=3 IOff=     0 NNewB=     0 IAdd=    24 IPass= 1 DotMx2= 1.23D-04
 OrtVc1:  Ph=3 IOff=     0 NNewB=     0 IAdd=    24 IPass= 2 DotMx2= 1.65D-17
 OrtVc1:  IOff=     0 IS=     1 I=    24 K1=T IndO=    24 NNew1=    24 Dot= 1.00D+00 DotN= 1.00D+00 ElMax1= 3.63D-01 ElMax1N= 3.63D-01
 OrtVc1:  Ph=3 IOff=     0 NNewB=     0 IAdd=    25 IPass= 1 DotMx2= 1.71D-04
 OrtVc1:  Ph=3 IOff=     0 NNewB=     0 IAdd=    25 IPass= 2 DotMx2= 4.95D-17
 OrtVc1:  IOff=     0 IS=     1 I=    25 K1=T IndO=    25 NNew1=    25 Dot= 1.00D+00 DotN= 1.00D+00 ElMax1= 4.11D-01 ElMax1N= 4.11D-01
 OrtVc1:  Ph=3 IOff=     0 NNewB=     0 IAdd=    26 IPass= 1 DotMx2= 1.72D-04
 OrtVc1:  Ph=3 IOff=     0 NNewB=     0 IAdd=    26 IPass= 2 DotMx2= 5.43D-17
 OrtVc1:  IOff=     0 IS=     1 I=    26 K1=T IndO=    26 NNew1=    26 Dot= 1.00D+00 DotN= 1.00D+00 ElMax1= 5.46D-01 ElMax1N= 5.46D-01
 OrtVc1:  Ph=3 IOff=     0 NNewB=     0 IAdd=    27 IPass= 1 DotMx2= 1.27D-04
 OrtVc1:  Ph=3 IOff=     0 NNewB=     0 IAdd=    27 IPass= 2 DotMx2= 3.92D-17
 OrtVc1:  IOff=     0 IS=     1 I=    27 K1=T IndO=    27 NNew1=    27 Dot= 1.00D+00 DotN= 1.00D+00 ElMax1= 6.11D-01 ElMax1N= 6.11D-01
 OrtVc1:  Ph=3 IOff=     0 NNewB=     0 IAdd=    28 IPass= 1 DotMx2= 1.24D-04
 OrtVc1:  Ph=3 IOff=     0 NNewB=     0 IAdd=    28 IPass= 2 DotMx2= 4.16D-17
 OrtVc1:  IOff=     0 IS=     1 I=    28 K1=T IndO=    28 NNew1=    28 Dot= 1.00D+00 DotN= 1.00D+00 ElMax1= 4.47D-01 ElMax1N= 4.47D-01
 OrtVc1:  Ph=3 IOff=     0 NNewB=     0 IAdd=    29 IPass= 1 DotMx2= 1.25D-04
 OrtVc1:  Ph=3 IOff=     0 NNewB=     0 IAdd=    29 IPass= 2 DotMx2= 2.74D-17
 OrtVc1:  IOff=     0 IS=     1 I=    29 K1=T IndO=    29 NNew1=    29 Dot= 1.00D+00 DotN= 1.00D+00 ElMax1= 4.93D-01 ElMax1N= 4.93D-01
 OrtVc1:  Ph=3 IOff=     0 NNewB=     0 IAdd=    30 IPass= 1 DotMx2= 1.40D-04
 OrtVc1:  Ph=3 IOff=     0 NNewB=     0 IAdd=    30 IPass= 2 DotMx2= 8.38D-17
 OrtVc1:  IOff=     0 IS=     1 I=    30 K1=T IndO=    30 NNew1=    30 Dot= 1.00D+00 DotN= 1.00D+00 ElMax1= 3.92D-01 ElMax1N= 3.92D-01
 OrtVc1:  Ph=2 IOff=    30 IPass= 1 DotMx1= 1.32D-04
 OrtVc1:  Ph=2 IOff=    30 IPass= 2 DotMx1= 1.36D-16
 OrtVc1:  IOff=     0 IS=    31 I=    31 K1=T IndO=    31 NNew1=     1 Dot= 1.00D+00 DotN= 1.00D+00 ElMax1= 4.05D-01 ElMax1N= 4.05D-01
 OrtVc1:  Ph=3 IOff=     0 NNewB=    30 IAdd=    32 IPass= 1 DotMx2= 1.83D-04
 OrtVc1:  Ph=3 IOff=     0 NNewB=    30 IAdd=    32 IPass= 2 DotMx2= 5.42D-20
 OrtVc1:  IOff=     0 IS=    31 I=    32 K1=T IndO=    32 NNew1=     2 Dot= 1.00D+00 DotN= 1.00D+00 ElMax1= 4.18D-01 ElMax1N= 4.18D-01
 Root      1 not converged, maximum delta is    0.316734304640433
 Root      2 not converged, maximum delta is    0.056062079839923
 New state      3 was old state      4
 Root      3 not converged, maximum delta is    0.307452481429323
 New state      4 was old state      3
 Root      4 not converged, maximum delta is    0.014320552474425
 Excitation Energies [eV] at current iteration:
 Root      1 :     7.829309276853589   Change is   -1.630433635219812
 Root      2 :     9.492325306429796   Change is   -0.142285081750919
 Root      3 :     9.586037953471619   Change is   -0.336252254243886
 Root      4 :     9.814053061035409   Change is   -0.043241746035333
 OrtVec:  Test1= 1.00D+00 Test2= 1.00D-06
 OrtVec:  NIn=      4 NOld=     32 NBNew=      4 NBOld=     36
 OrtVc1:  Ph=1 IOff=     0 IPass= 1 DotMx1= 2.83D-03
 OrtVc1:  Ph=1 IOff=     0 IPass= 2 DotMx1= 4.26D-18
 OrtVc1:  Ph=2 IOff=     0 IPass= 1 DotMx1= 0.00D+00
 OrtVc1:  IOff=     0 IS=     1 I=     1 K1=T IndO=     1 NNew1=     1 Dot= 3.21D-04 DotN= 3.21D-04 ElMax1= 8.90D-03 ElMax1N= 8.90D-03
 OrtVc1:  Ph=3 IOff=     0 NNewB=     0 IAdd=     2 IPass= 1 DotMx2= 1.28D-05
 OrtVc1:  Ph=3 IOff=     0 NNewB=     0 IAdd=     2 IPass= 2 DotMx2= 3.51D-21
 OrtVc1:  IOff=     0 IS=     1 I=     2 K1=T IndO=     2 NNew1=     2 Dot= 6.84D-06 DotN= 6.84D-06 ElMax1= 1.39D-03 ElMax1N= 1.39D-03
 OrtVc1:  Ph=3 IOff=     0 NNewB=     0 IAdd=     3 IPass= 1 DotMx2= 7.54D-04
 OrtVc1:  Ph=3 IOff=     0 NNewB=     0 IAdd=     3 IPass= 2 DotMx2= 5.78D-19
 OrtVc1:  IOff=     0 IS=     1 I=     3 K1=T IndO=     3 NNew1=     3 Dot= 1.37D-04 DotN= 1.37D-04 ElMax1= 4.19D-03 ElMax1N= 4.19D-03
 OrtVc1:  Ph=3 IOff=     0 NNewB=     0 IAdd=     4 IPass= 1 DotMx2= 9.61D-06
 OrtVc1:  Ph=3 IOff=     0 NNewB=     0 IAdd=     4 IPass= 2 DotMx2= 4.97D-21
 OrtVc1:  IOff=     0 IS=     1 I=     4 K1=T IndO=     4 NNew1=     4 Dot= 2.36D-05 DotN= 2.36D-05 ElMax1= 2.63D-03 ElMax1N= 2.63D-03
 Iteration     3 Dimension    36 NMult    36
 OrtVec:  Test1= 1.00D+00 Test2= 1.00D-06
 OrtVec:  NIn=     36 NOld=      0 NBNew=     36 NBOld=     36
 OrtVc1:  Ph=1 IOff=     0 IPass= 1 DotMx1= 0.00D+00
 OrtVc1:  Ph=2 IOff=     0 IPass= 1 DotMx1= 0.00D+00
 OrtVc1:  IOff=     0 IS=     1 I=     1 K1=T IndO=     1 NNew1=     1 Dot= 1.00D+00 DotN= 1.00D+00 ElMax1= 6.82D-01 ElMax1N= 6.82D-01
 OrtVc1:  Ph=3 IOff=     0 NNewB=     0 IAdd=     2 IPass= 1 DotMx2= 4.48D-05
 OrtVc1:  Ph=3 IOff=     0 NNewB=     0 IAdd=     2 IPass= 2 DotMx2= 1.08D-19
 OrtVc1:  IOff=     0 IS=     1 I=     2 K1=T IndO=     2 NNew1=     2 Dot= 1.00D+00 DotN= 1.00D+00 ElMax1= 6.71D-01 ElMax1N= 6.71D-01
 OrtVc1:  Ph=3 IOff=     0 NNewB=     0 IAdd=     3 IPass= 1 DotMx2= 2.97D-05
 OrtVc1:  Ph=3 IOff=     0 NNewB=     0 IAdd=     3 IPass= 2 DotMx2= 2.00D-19
 OrtVc1:  IOff=     0 IS=     1 I=     3 K1=T IndO=     3 NNew1=     3 Dot= 1.00D+00 DotN= 1.00D+00 ElMax1= 6.85D-01 ElMax1N= 6.85D-01
 OrtVc1:  Ph=3 IOff=     0 NNewB=     0 IAdd=     4 IPass= 1 DotMx2= 1.85D-05
 OrtVc1:  Ph=3 IOff=     0 NNewB=     0 IAdd=     4 IPass= 2 DotMx2= 9.44D-19
 OrtVc1:  IOff=     0 IS=     1 I=     4 K1=T IndO=     4 NNew1=     4 Dot= 1.00D+00 DotN= 1.00D+00 ElMax1= 7.05D-01 ElMax1N= 7.05D-01
 OrtVc1:  Ph=3 IOff=     0 NNewB=     0 IAdd=     5 IPass= 1 DotMx2= 1.25D-04
 OrtVc1:  Ph=3 IOff=     0 NNewB=     0 IAdd=     5 IPass= 2 DotMx2= 3.35D-16
 OrtVc1:  IOff=     0 IS=     1 I=     5 K1=T IndO=     5 NNew1=     5 Dot= 1.00D+00 DotN= 1.00D+00 ElMax1= 6.72D-01 ElMax1N= 6.72D-01
 OrtVc1:  Ph=3 IOff=     0 NNewB=     0 IAdd=     6 IPass= 1 DotMx2= 2.62D-05
 OrtVc1:  Ph=3 IOff=     0 NNewB=     0 IAdd=     6 IPass= 2 DotMx2= 2.52D-17
 OrtVc1:  IOff=     0 IS=     1 I=     6 K1=T IndO=     6 NNew1=     6 Dot= 1.00D+00 DotN= 1.00D+00 ElMax1= 6.95D-01 ElMax1N= 6.95D-01
 OrtVc1:  Ph=3 IOff=     0 NNewB=     0 IAdd=     7 IPass= 1 DotMx2= 1.13D-04
 OrtVc1:  Ph=3 IOff=     0 NNewB=     0 IAdd=     7 IPass= 2 DotMx2= 1.45D-20
 OrtVc1:  IOff=     0 IS=     1 I=     7 K1=T IndO=     7 NNew1=     7 Dot= 1.00D+00 DotN= 1.00D+00 ElMax1= 6.94D-01 ElMax1N= 6.94D-01
 OrtVc1:  Ph=3 IOff=     0 NNewB=     0 IAdd=     8 IPass= 1 DotMx2= 4.44D-05
 OrtVc1:  Ph=3 IOff=     0 NNewB=     0 IAdd=     8 IPass= 2 DotMx2= 5.55D-17
 OrtVc1:  IOff=     0 IS=     1 I=     8 K1=T IndO=     8 NNew1=     8 Dot= 1.00D+00 DotN= 1.00D+00 ElMax1= 6.94D-01 ElMax1N= 6.94D-01
 OrtVc1:  Ph=3 IOff=     0 NNewB=     0 IAdd=     9 IPass= 1 DotMx2= 7.18D-06
 OrtVc1:  Ph=3 IOff=     0 NNewB=     0 IAdd=     9 IPass= 2 DotMx2= 2.21D-17
 OrtVc1:  IOff=     0 IS=     1 I=     9 K1=T IndO=     9 NNew1=     9 Dot= 1.00D+00 DotN= 1.00D+00 ElMax1= 6.80D-01 ElMax1N= 6.80D-01
 OrtVc1:  Ph=3 IOff=     0 NNewB=     0 IAdd=    10 IPass= 1 DotMx2= 7.72D-05
 OrtVc1:  Ph=3 IOff=     0 NNewB=     0 IAdd=    10 IPass= 2 DotMx2= 7.51D-18
 OrtVc1:  IOff=     0 IS=     1 I=    10 K1=T IndO=    10 NNew1=    10 Dot= 1.00D+00 DotN= 1.00D+00 ElMax1= 6.94D-01 ElMax1N= 6.94D-01
 OrtVc1:  Ph=3 IOff=     0 NNewB=     0 IAdd=    11 IPass= 1 DotMx2= 1.30D-04
 OrtVc1:  Ph=3 IOff=     0 NNewB=     0 IAdd=    11 IPass= 2 DotMx2= 7.96D-18
 OrtVc1:  IOff=     0 IS=     1 I=    11 K1=T IndO=    11 NNew1=    11 Dot= 1.00D+00 DotN= 1.00D+00 ElMax1= 6.36D-01 ElMax1N= 6.36D-01
 OrtVc1:  Ph=3 IOff=     0 NNewB=     0 IAdd=    12 IPass= 1 DotMx2= 1.01D-04
 OrtVc1:  Ph=3 IOff=     0 NNewB=     0 IAdd=    12 IPass= 2 DotMx2= 1.37D-17
 OrtVc1:  IOff=     0 IS=     1 I=    12 K1=T IndO=    12 NNew1=    12 Dot= 1.00D+00 DotN= 1.00D+00 ElMax1= 6.83D-01 ElMax1N= 6.83D-01
 OrtVc1:  Ph=3 IOff=     0 NNewB=     0 IAdd=    13 IPass= 1 DotMx2= 8.31D-05
 OrtVc1:  Ph=3 IOff=     0 NNewB=     0 IAdd=    13 IPass= 2 DotMx2= 4.03D-19
 OrtVc1:  IOff=     0 IS=     1 I=    13 K1=T IndO=    13 NNew1=    13 Dot= 1.00D+00 DotN= 1.00D+00 ElMax1= 6.99D-01 ElMax1N= 6.99D-01
 OrtVc1:  Ph=3 IOff=     0 NNewB=     0 IAdd=    14 IPass= 1 DotMx2= 9.90D-05
 OrtVc1:  Ph=3 IOff=     0 NNewB=     0 IAdd=    14 IPass= 2 DotMx2= 8.69D-18
 OrtVc1:  IOff=     0 IS=     1 I=    14 K1=T IndO=    14 NNew1=    14 Dot= 1.00D+00 DotN= 1.00D+00 ElMax1= 6.62D-01 ElMax1N= 6.62D-01
 OrtVc1:  Ph=3 IOff=     0 NNewB=     0 IAdd=    15 IPass= 1 DotMx2= 1.10D-04
 OrtVc1:  Ph=3 IOff=     0 NNewB=     0 IAdd=    15 IPass= 2 DotMx2= 6.27D-17
 OrtVc1:  IOff=     0 IS=     1 I=    15 K1=T IndO=    15 NNew1=    15 Dot= 1.00D+00 DotN= 1.00D+00 ElMax1= 6.78D-01 ElMax1N= 6.78D-01
 OrtVc1:  Ph=3 IOff=     0 NNewB=     0 IAdd=    16 IPass= 1 DotMx2= 7.62D-05
 OrtVc1:  Ph=3 IOff=     0 NNewB=     0 IAdd=    16 IPass= 2 DotMx2= 1.89D-18
 OrtVc1:  IOff=     0 IS=     1 I=    16 K1=T IndO=    16 NNew1=    16 Dot= 1.00D+00 DotN= 1.00D+00 ElMax1= 6.90D-01 ElMax1N= 6.90D-01
 OrtVc1:  Ph=3 IOff=     0 NNewB=     0 IAdd=    17 IPass= 1 DotMx2= 8.75D-05
 OrtVc1:  Ph=3 IOff=     0 NNewB=     0 IAdd=    17 IPass= 2 DotMx2= 1.24D-16
 OrtVc1:  IOff=     0 IS=     1 I=    17 K1=T IndO=    17 NNew1=    17 Dot= 1.00D+00 DotN= 1.00D+00 ElMax1= 5.80D-01 ElMax1N= 5.80D-01
 OrtVc1:  Ph=3 IOff=     0 NNewB=     0 IAdd=    18 IPass= 1 DotMx2= 1.38D-04
 OrtVc1:  Ph=3 IOff=     0 NNewB=     0 IAdd=    18 IPass= 2 DotMx2= 8.97D-17
 OrtVc1:  IOff=     0 IS=     1 I=    18 K1=T IndO=    18 NNew1=    18 Dot= 1.00D+00 DotN= 1.00D+00 ElMax1= 5.96D-01 ElMax1N= 5.96D-01
 OrtVc1:  Ph=3 IOff=     0 NNewB=     0 IAdd=    19 IPass= 1 DotMx2= 7.07D-05
 OrtVc1:  Ph=3 IOff=     0 NNewB=     0 IAdd=    19 IPass= 2 DotMx2= 1.17D-16
 OrtVc1:  IOff=     0 IS=     1 I=    19 K1=T IndO=    19 NNew1=    19 Dot= 1.00D+00 DotN= 1.00D+00 ElMax1= 6.01D-01 ElMax1N= 6.01D-01
 OrtVc1:  Ph=3 IOff=     0 NNewB=     0 IAdd=    20 IPass= 1 DotMx2= 1.26D-04
 OrtVc1:  Ph=3 IOff=     0 NNewB=     0 IAdd=    20 IPass= 2 DotMx2= 6.91D-17
 OrtVc1:  IOff=     0 IS=     1 I=    20 K1=T IndO=    20 NNew1=    20 Dot= 1.00D+00 DotN= 1.00D+00 ElMax1= 6.78D-01 ElMax1N= 6.78D-01
 OrtVc1:  Ph=3 IOff=     0 NNewB=     0 IAdd=    21 IPass= 1 DotMx2= 1.41D-04
 OrtVc1:  Ph=3 IOff=     0 NNewB=     0 IAdd=    21 IPass= 2 DotMx2= 8.53D-17
 OrtVc1:  IOff=     0 IS=     1 I=    21 K1=T IndO=    21 NNew1=    21 Dot= 1.00D+00 DotN= 1.00D+00 ElMax1= 5.15D-01 ElMax1N= 5.15D-01
 OrtVc1:  Ph=3 IOff=     0 NNewB=     0 IAdd=    22 IPass= 1 DotMx2= 2.50D-04
 OrtVc1:  Ph=3 IOff=     0 NNewB=     0 IAdd=    22 IPass= 2 DotMx2= 1.67D-16
 OrtVc1:  IOff=     0 IS=     1 I=    22 K1=T IndO=    22 NNew1=    22 Dot= 1.00D+00 DotN= 1.00D+00 ElMax1= 4.50D-01 ElMax1N= 4.50D-01
 OrtVc1:  Ph=3 IOff=     0 NNewB=     0 IAdd=    23 IPass= 1 DotMx2= 1.61D-04
 OrtVc1:  Ph=3 IOff=     0 NNewB=     0 IAdd=    23 IPass= 2 DotMx2= 4.34D-17
 OrtVc1:  IOff=     0 IS=     1 I=    23 K1=T IndO=    23 NNew1=    23 Dot= 1.00D+00 DotN= 1.00D+00 ElMax1= 4.61D-01 ElMax1N= 4.61D-01
 OrtVc1:  Ph=3 IOff=     0 NNewB=     0 IAdd=    24 IPass= 1 DotMx2= 1.18D-04
 OrtVc1:  Ph=3 IOff=     0 NNewB=     0 IAdd=    24 IPass= 2 DotMx2= 1.14D-16
 OrtVc1:  IOff=     0 IS=     1 I=    24 K1=T IndO=    24 NNew1=    24 Dot= 1.00D+00 DotN= 1.00D+00 ElMax1= 4.28D-01 ElMax1N= 4.28D-01
 OrtVc1:  Ph=3 IOff=     0 NNewB=     0 IAdd=    25 IPass= 1 DotMx2= 1.09D-04
 OrtVc1:  Ph=3 IOff=     0 NNewB=     0 IAdd=    25 IPass= 2 DotMx2= 3.40D-16
 OrtVc1:  IOff=     0 IS=     1 I=    25 K1=T IndO=    25 NNew1=    25 Dot= 1.00D+00 DotN= 1.00D+00 ElMax1= 2.89D-01 ElMax1N= 2.89D-01
 OrtVc1:  Ph=3 IOff=     0 NNewB=     0 IAdd=    26 IPass= 1 DotMx2= 1.46D-04
 OrtVc1:  Ph=3 IOff=     0 NNewB=     0 IAdd=    26 IPass= 2 DotMx2= 4.93D-17
 OrtVc1:  IOff=     0 IS=     1 I=    26 K1=T IndO=    26 NNew1=    26 Dot= 1.00D+00 DotN= 1.00D+00 ElMax1= 4.28D-01 ElMax1N= 4.28D-01
 OrtVc1:  Ph=3 IOff=     0 NNewB=     0 IAdd=    27 IPass= 1 DotMx2= 1.92D-04
 OrtVc1:  Ph=3 IOff=     0 NNewB=     0 IAdd=    27 IPass= 2 DotMx2= 2.50D-17
 OrtVc1:  IOff=     0 IS=     1 I=    27 K1=T IndO=    27 NNew1=    27 Dot= 1.00D+00 DotN= 1.00D+00 ElMax1= 3.65D-01 ElMax1N= 3.65D-01
 OrtVc1:  Ph=3 IOff=     0 NNewB=     0 IAdd=    28 IPass= 1 DotMx2= 9.66D-05
 OrtVc1:  Ph=3 IOff=     0 NNewB=     0 IAdd=    28 IPass= 2 DotMx2= 2.78D-17
 OrtVc1:  IOff=     0 IS=     1 I=    28 K1=T IndO=    28 NNew1=    28 Dot= 1.00D+00 DotN= 1.00D+00 ElMax1= 3.80D-01 ElMax1N= 3.80D-01
 OrtVc1:  Ph=3 IOff=     0 NNewB=     0 IAdd=    29 IPass= 1 DotMx2= 1.39D-04
 OrtVc1:  Ph=3 IOff=     0 NNewB=     0 IAdd=    29 IPass= 2 DotMx2= 7.52D-17
 OrtVc1:  IOff=     0 IS=     1 I=    29 K1=T IndO=    29 NNew1=    29 Dot= 1.00D+00 DotN= 1.00D+00 ElMax1= 6.11D-01 ElMax1N= 6.11D-01
 OrtVc1:  Ph=3 IOff=     0 NNewB=     0 IAdd=    30 IPass= 1 DotMx2= 1.33D-04
 OrtVc1:  Ph=3 IOff=     0 NNewB=     0 IAdd=    30 IPass= 2 DotMx2= 9.22D-17
 OrtVc1:  IOff=     0 IS=     1 I=    30 K1=T IndO=    30 NNew1=    30 Dot= 1.00D+00 DotN= 1.00D+00 ElMax1= 4.00D-01 ElMax1N= 4.00D-01
 OrtVc1:  Ph=2 IOff=    30 IPass= 1 DotMx1= 2.18D-04
 OrtVc1:  Ph=2 IOff=    30 IPass= 2 DotMx1= 1.64D-16
 OrtVc1:  IOff=     0 IS=    31 I=    31 K1=T IndO=    31 NNew1=     1 Dot= 1.00D+00 DotN= 1.00D+00 ElMax1= 4.47D-01 ElMax1N= 4.47D-01
 OrtVc1:  Ph=3 IOff=     0 NNewB=    30 IAdd=    32 IPass= 1 DotMx2= 8.14D-05
 OrtVc1:  Ph=3 IOff=     0 NNewB=    30 IAdd=    32 IPass= 2 DotMx2= 1.08D-19
 OrtVc1:  IOff=     0 IS=    31 I=    32 K1=T IndO=    32 NNew1=     2 Dot= 1.00D+00 DotN= 1.00D+00 ElMax1= 4.18D-01 ElMax1N= 4.18D-01
 OrtVc1:  Ph=3 IOff=     0 NNewB=    30 IAdd=    33 IPass= 1 DotMx2= 1.74D-04
 OrtVc1:  Ph=3 IOff=     0 NNewB=    30 IAdd=    33 IPass= 2 DotMx2= 3.43D-17
 OrtVc1:  IOff=     0 IS=    31 I=    33 K1=T IndO=    33 NNew1=     3 Dot= 1.00D+00 DotN= 1.00D+00 ElMax1= 2.98D-01 ElMax1N= 2.98D-01
 OrtVc1:  Ph=3 IOff=     0 NNewB=    30 IAdd=    34 IPass= 1 DotMx2= 4.88D-05
 OrtVc1:  Ph=3 IOff=     0 NNewB=    30 IAdd=    34 IPass= 2 DotMx2= 5.20D-18
 OrtVc1:  IOff=     0 IS=    31 I=    34 K1=T IndO=    34 NNew1=     4 Dot= 1.00D+00 DotN= 1.00D+00 ElMax1= 4.18D-01 ElMax1N= 4.18D-01
 OrtVc1:  Ph=3 IOff=     0 NNewB=    30 IAdd=    35 IPass= 1 DotMx2= 8.73D-05
 OrtVc1:  Ph=3 IOff=     0 NNewB=    30 IAdd=    35 IPass= 2 DotMx2= 1.62D-16
 OrtVc1:  IOff=     0 IS=    31 I=    35 K1=T IndO=    35 NNew1=     5 Dot= 1.00D+00 DotN= 1.00D+00 ElMax1= 4.56D-01 ElMax1N= 4.56D-01
 OrtVc1:  Ph=3 IOff=     0 NNewB=    30 IAdd=    36 IPass= 1 DotMx2= 9.44D-05
 OrtVc1:  Ph=3 IOff=     0 NNewB=    30 IAdd=    36 IPass= 2 DotMx2= 3.38D-19
 OrtVc1:  IOff=     0 IS=    31 I=    36 K1=T IndO=    36 NNew1=     6 Dot= 1.00D+00 DotN= 1.00D+00 ElMax1= 3.26D-01 ElMax1N= 3.26D-01
 Root      1 not converged, maximum delta is    0.014829707103055
 Root      2 not converged, maximum delta is    0.002133086871362
 Root      3 not converged, maximum delta is    0.009742730044949
 Root      4 not converged, maximum delta is    0.005284454134399
 Excitation Energies [eV] at current iteration:
 Root      1 :     7.815433164760208   Change is   -0.013876112093381
 Root      2 :     9.492023614965733   Change is   -0.000301691464063
 Root      3 :     9.579416450743162   Change is   -0.006621502728458
 Root      4 :     9.812979926066294   Change is   -0.001073134969116
 OrtVec:  Test1= 1.00D+00 Test2= 1.00D-06
 OrtVec:  NIn=      4 NOld=     36 NBNew=      4 NBOld=     40
 OrtVc1:  Ph=1 IOff=     0 IPass= 1 DotMx1= 7.79D-04
 OrtVc1:  Ph=1 IOff=     0 IPass= 2 DotMx1= 2.43D-19
 OrtVc1:  Ph=2 IOff=     0 IPass= 1 DotMx1= 0.00D+00
 OrtVc1:  IOff=     0 IS=     1 I=     1 K1=T IndO=     1 NNew1=     1 Dot= 4.57D-06 DotN= 4.57D-06 ElMax1= 6.97D-04 ElMax1N= 6.97D-04
 OrtVc1:  Ph=3 IOff=     0 NNewB=     0 IAdd=     2 IPass= 1 DotMx2= 2.26D-07
 OrtVc1:  Ph=3 IOff=     0 NNewB=     0 IAdd=     2 IPass= 2 DotMx2= 1.21D-22
 OrtVc1:  IOff=     0 IS=     1 I=     2 K1=T IndO=     2 NNew1=     2 Dot= 1.86D-07 DotN= 1.86D-07 ElMax1= 1.55D-04 ElMax1N= 1.55D-04
 OrtVc1:  Ph=3 IOff=     0 NNewB=     0 IAdd=     3 IPass= 1 DotMx2= 3.76D-04
 OrtVc1:  Ph=3 IOff=     0 NNewB=     0 IAdd=     3 IPass= 2 DotMx2= 3.83D-19
 OrtVc1:  IOff=     0 IS=     1 I=     3 K1=T IndO=     3 NNew1=     3 Dot= 8.65D-07 DotN= 8.65D-07 ElMax1= 3.24D-04 ElMax1N= 3.24D-04
 OrtVc1:  Ph=3 IOff=     0 NNewB=     0 IAdd=     4 IPass= 1 DotMx2= 7.58D-07
 OrtVc1:  Ph=3 IOff=     0 NNewB=     0 IAdd=     4 IPass= 2 DotMx2= 7.23D-22
 OrtVc1:  IOff=     0 IS=     1 I=     4 K1=T IndO=     4 NNew1=     4 Dot= 7.31D-07 DotN= 7.31D-07 ElMax1= 4.05D-04 ElMax1N= 4.05D-04
 Iteration     4 Dimension    40 NMult    40
 OrtVec:  Test1= 1.00D+00 Test2= 1.00D-06
 OrtVec:  NIn=     40 NOld=      0 NBNew=     40 NBOld=     40
 OrtVc1:  Ph=1 IOff=     0 IPass= 1 DotMx1= 0.00D+00
 OrtVc1:  Ph=2 IOff=     0 IPass= 1 DotMx1= 0.00D+00
 OrtVc1:  IOff=     0 IS=     1 I=     1 K1=T IndO=     1 NNew1=     1 Dot= 1.00D+00 DotN= 1.00D+00 ElMax1= 6.82D-01 ElMax1N= 6.82D-01
 OrtVc1:  Ph=3 IOff=     0 NNewB=     0 IAdd=     2 IPass= 1 DotMx2= 4.49D-05
 OrtVc1:  Ph=3 IOff=     0 NNewB=     0 IAdd=     2 IPass= 2 DotMx2= 1.63D-19
 OrtVc1:  IOff=     0 IS=     1 I=     2 K1=T IndO=     2 NNew1=     2 Dot= 1.00D+00 DotN= 1.00D+00 ElMax1= 6.71D-01 ElMax1N= 6.71D-01
 OrtVc1:  Ph=3 IOff=     0 NNewB=     0 IAdd=     3 IPass= 1 DotMx2= 2.99D-05
 OrtVc1:  Ph=3 IOff=     0 NNewB=     0 IAdd=     3 IPass= 2 DotMx2= 8.62D-19
 OrtVc1:  IOff=     0 IS=     1 I=     3 K1=T IndO=     3 NNew1=     3 Dot= 1.00D+00 DotN= 1.00D+00 ElMax1= 6.85D-01 ElMax1N= 6.85D-01
 OrtVc1:  Ph=3 IOff=     0 NNewB=     0 IAdd=     4 IPass= 1 DotMx2= 1.85D-05
 OrtVc1:  Ph=3 IOff=     0 NNewB=     0 IAdd=     4 IPass= 2 DotMx2= 3.47D-19
 OrtVc1:  IOff=     0 IS=     1 I=     4 K1=T IndO=     4 NNew1=     4 Dot= 1.00D+00 DotN= 1.00D+00 ElMax1= 7.05D-01 ElMax1N= 7.05D-01
 OrtVc1:  Ph=3 IOff=     0 NNewB=     0 IAdd=     5 IPass= 1 DotMx2= 1.26D-04
 OrtVc1:  Ph=3 IOff=     0 NNewB=     0 IAdd=     5 IPass= 2 DotMx2= 7.30D-17
 OrtVc1:  IOff=     0 IS=     1 I=     5 K1=T IndO=     5 NNew1=     5 Dot= 1.00D+00 DotN= 1.00D+00 ElMax1= 6.71D-01 ElMax1N= 6.71D-01
 OrtVc1:  Ph=3 IOff=     0 NNewB=     0 IAdd=     6 IPass= 1 DotMx2= 2.62D-05
 OrtVc1:  Ph=3 IOff=     0 NNewB=     0 IAdd=     6 IPass= 2 DotMx2= 8.68D-17
 OrtVc1:  IOff=     0 IS=     1 I=     6 K1=T IndO=     6 NNew1=     6 Dot= 1.00D+00 DotN= 1.00D+00 ElMax1= 6.95D-01 ElMax1N= 6.95D-01
 OrtVc1:  Ph=3 IOff=     0 NNewB=     0 IAdd=     7 IPass= 1 DotMx2= 1.13D-04
 OrtVc1:  Ph=3 IOff=     0 NNewB=     0 IAdd=     7 IPass= 2 DotMx2= 3.48D-20
 OrtVc1:  IOff=     0 IS=     1 I=     7 K1=T IndO=     7 NNew1=     7 Dot= 1.00D+00 DotN= 1.00D+00 ElMax1= 6.94D-01 ElMax1N= 6.94D-01
 OrtVc1:  Ph=3 IOff=     0 NNewB=     0 IAdd=     8 IPass= 1 DotMx2= 4.46D-05
 OrtVc1:  Ph=3 IOff=     0 NNewB=     0 IAdd=     8 IPass= 2 DotMx2= 1.21D-20
 OrtVc1:  IOff=     0 IS=     1 I=     8 K1=T IndO=     8 NNew1=     8 Dot= 1.00D+00 DotN= 1.00D+00 ElMax1= 6.94D-01 ElMax1N= 6.94D-01
 OrtVc1:  Ph=3 IOff=     0 NNewB=     0 IAdd=     9 IPass= 1 DotMx2= 7.22D-06
 OrtVc1:  Ph=3 IOff=     0 NNewB=     0 IAdd=     9 IPass= 2 DotMx2= 8.61D-18
 OrtVc1:  IOff=     0 IS=     1 I=     9 K1=T IndO=     9 NNew1=     9 Dot= 1.00D+00 DotN= 1.00D+00 ElMax1= 6.80D-01 ElMax1N= 6.80D-01
 OrtVc1:  Ph=3 IOff=     0 NNewB=     0 IAdd=    10 IPass= 1 DotMx2= 7.72D-05
 OrtVc1:  Ph=3 IOff=     0 NNewB=     0 IAdd=    10 IPass= 2 DotMx2= 9.19D-18
 OrtVc1:  IOff=     0 IS=     1 I=    10 K1=T IndO=    10 NNew1=    10 Dot= 1.00D+00 DotN= 1.00D+00 ElMax1= 6.94D-01 ElMax1N= 6.94D-01
 OrtVc1:  Ph=3 IOff=     0 NNewB=     0 IAdd=    11 IPass= 1 DotMx2= 1.21D-04
 OrtVc1:  Ph=3 IOff=     0 NNewB=     0 IAdd=    11 IPass= 2 DotMx2= 3.45D-18
 OrtVc1:  IOff=     0 IS=     1 I=    11 K1=T IndO=    11 NNew1=    11 Dot= 1.00D+00 DotN= 1.00D+00 ElMax1= 6.36D-01 ElMax1N= 6.36D-01
 OrtVc1:  Ph=3 IOff=     0 NNewB=     0 IAdd=    12 IPass= 1 DotMx2= 1.01D-04
 OrtVc1:  Ph=3 IOff=     0 NNewB=     0 IAdd=    12 IPass= 2 DotMx2= 1.59D-17
 OrtVc1:  IOff=     0 IS=     1 I=    12 K1=T IndO=    12 NNew1=    12 Dot= 1.00D+00 DotN= 1.00D+00 ElMax1= 6.83D-01 ElMax1N= 6.83D-01
 OrtVc1:  Ph=3 IOff=     0 NNewB=     0 IAdd=    13 IPass= 1 DotMx2= 1.10D-04
 OrtVc1:  Ph=3 IOff=     0 NNewB=     0 IAdd=    13 IPass= 2 DotMx2= 8.40D-19
 OrtVc1:  IOff=     0 IS=     1 I=    13 K1=T IndO=    13 NNew1=    13 Dot= 1.00D+00 DotN= 1.00D+00 ElMax1= 6.99D-01 ElMax1N= 6.99D-01
 OrtVc1:  Ph=3 IOff=     0 NNewB=     0 IAdd=    14 IPass= 1 DotMx2= 9.91D-05
 OrtVc1:  Ph=3 IOff=     0 NNewB=     0 IAdd=    14 IPass= 2 DotMx2= 2.23D-17
 OrtVc1:  IOff=     0 IS=     1 I=    14 K1=T IndO=    14 NNew1=    14 Dot= 1.00D+00 DotN= 1.00D+00 ElMax1= 6.62D-01 ElMax1N= 6.62D-01
 OrtVc1:  Ph=3 IOff=     0 NNewB=     0 IAdd=    15 IPass= 1 DotMx2= 1.09D-04
 OrtVc1:  Ph=3 IOff=     0 NNewB=     0 IAdd=    15 IPass= 2 DotMx2= 3.94D-17
 OrtVc1:  IOff=     0 IS=     1 I=    15 K1=T IndO=    15 NNew1=    15 Dot= 1.00D+00 DotN= 1.00D+00 ElMax1= 6.78D-01 ElMax1N= 6.78D-01
 OrtVc1:  Ph=3 IOff=     0 NNewB=     0 IAdd=    16 IPass= 1 DotMx2= 7.35D-05
 OrtVc1:  Ph=3 IOff=     0 NNewB=     0 IAdd=    16 IPass= 2 DotMx2= 2.22D-17
 OrtVc1:  IOff=     0 IS=     1 I=    16 K1=T IndO=    16 NNew1=    16 Dot= 1.00D+00 DotN= 1.00D+00 ElMax1= 6.75D-01 ElMax1N= 6.75D-01
 OrtVc1:  Ph=3 IOff=     0 NNewB=     0 IAdd=    17 IPass= 1 DotMx2= 1.94D-04
 OrtVc1:  Ph=3 IOff=     0 NNewB=     0 IAdd=    17 IPass= 2 DotMx2= 1.63D-16
 OrtVc1:  IOff=     0 IS=     1 I=    17 K1=T IndO=    17 NNew1=    17 Dot= 1.00D+00 DotN= 1.00D+00 ElMax1= 6.58D-01 ElMax1N= 6.58D-01
 OrtVc1:  Ph=3 IOff=     0 NNewB=     0 IAdd=    18 IPass= 1 DotMx2= 8.95D-05
 OrtVc1:  Ph=3 IOff=     0 NNewB=     0 IAdd=    18 IPass= 2 DotMx2= 1.13D-16
 OrtVc1:  IOff=     0 IS=     1 I=    18 K1=T IndO=    18 NNew1=    18 Dot= 1.00D+00 DotN= 1.00D+00 ElMax1= 4.82D-01 ElMax1N= 4.82D-01
 OrtVc1:  Ph=3 IOff=     0 NNewB=     0 IAdd=    19 IPass= 1 DotMx2= 1.29D-04
 OrtVc1:  Ph=3 IOff=     0 NNewB=     0 IAdd=    19 IPass= 2 DotMx2= 6.89D-17
 OrtVc1:  IOff=     0 IS=     1 I=    19 K1=T IndO=    19 NNew1=    19 Dot= 1.00D+00 DotN= 1.00D+00 ElMax1= 5.70D-01 ElMax1N= 5.70D-01
 OrtVc1:  Ph=3 IOff=     0 NNewB=     0 IAdd=    20 IPass= 1 DotMx2= 1.53D-04
 OrtVc1:  Ph=3 IOff=     0 NNewB=     0 IAdd=    20 IPass= 2 DotMx2= 1.65D-16
 OrtVc1:  IOff=     0 IS=     1 I=    20 K1=T IndO=    20 NNew1=    20 Dot= 1.00D+00 DotN= 1.00D+00 ElMax1= 5.96D-01 ElMax1N= 5.96D-01
 OrtVc1:  Ph=3 IOff=     0 NNewB=     0 IAdd=    21 IPass= 1 DotMx2= 1.64D-04
 OrtVc1:  Ph=3 IOff=     0 NNewB=     0 IAdd=    21 IPass= 2 DotMx2= 1.14D-16
 OrtVc1:  IOff=     0 IS=     1 I=    21 K1=T IndO=    21 NNew1=    21 Dot= 1.00D+00 DotN= 1.00D+00 ElMax1= 5.44D-01 ElMax1N= 5.44D-01
 OrtVc1:  Ph=3 IOff=     0 NNewB=     0 IAdd=    22 IPass= 1 DotMx2= 1.39D-04
 OrtVc1:  Ph=3 IOff=     0 NNewB=     0 IAdd=    22 IPass= 2 DotMx2= 2.72D-17
 OrtVc1:  IOff=     0 IS=     1 I=    22 K1=T IndO=    22 NNew1=    22 Dot= 1.00D+00 DotN= 1.00D+00 ElMax1= 6.75D-01 ElMax1N= 6.75D-01
 OrtVc1:  Ph=3 IOff=     0 NNewB=     0 IAdd=    23 IPass= 1 DotMx2= 1.99D-04
 OrtVc1:  Ph=3 IOff=     0 NNewB=     0 IAdd=    23 IPass= 2 DotMx2= 1.12D-16
 OrtVc1:  IOff=     0 IS=     1 I=    23 K1=T IndO=    23 NNew1=    23 Dot= 1.00D+00 DotN= 1.00D+00 ElMax1= 4.54D-01 ElMax1N= 4.54D-01
 OrtVc1:  Ph=3 IOff=     0 NNewB=     0 IAdd=    24 IPass= 1 DotMx2= 7.95D-05
 OrtVc1:  Ph=3 IOff=     0 NNewB=     0 IAdd=    24 IPass= 2 DotMx2= 6.94D-17
 OrtVc1:  IOff=     0 IS=     1 I=    24 K1=T IndO=    24 NNew1=    24 Dot= 1.00D+00 DotN= 1.00D+00 ElMax1= 6.12D-01 ElMax1N= 6.12D-01
 OrtVc1:  Ph=3 IOff=     0 NNewB=     0 IAdd=    25 IPass= 1 DotMx2= 1.19D-04
 OrtVc1:  Ph=3 IOff=     0 NNewB=     0 IAdd=    25 IPass= 2 DotMx2= 2.17D-16
 OrtVc1:  IOff=     0 IS=     1 I=    25 K1=T IndO=    25 NNew1=    25 Dot= 1.00D+00 DotN= 1.00D+00 ElMax1= 3.72D-01 ElMax1N= 3.72D-01
 OrtVc1:  Ph=3 IOff=     0 NNewB=     0 IAdd=    26 IPass= 1 DotMx2= 1.86D-04
 OrtVc1:  Ph=3 IOff=     0 NNewB=     0 IAdd=    26 IPass= 2 DotMx2= 9.60D-17
 OrtVc1:  IOff=     0 IS=     1 I=    26 K1=T IndO=    26 NNew1=    26 Dot= 1.00D+00 DotN= 1.00D+00 ElMax1= 4.93D-01 ElMax1N= 4.93D-01
 OrtVc1:  Ph=3 IOff=     0 NNewB=     0 IAdd=    27 IPass= 1 DotMx2= 1.20D-04
 OrtVc1:  Ph=3 IOff=     0 NNewB=     0 IAdd=    27 IPass= 2 DotMx2= 2.74D-17
 OrtVc1:  IOff=     0 IS=     1 I=    27 K1=T IndO=    27 NNew1=    27 Dot= 1.00D+00 DotN= 1.00D+00 ElMax1= 3.62D-01 ElMax1N= 3.62D-01
 OrtVc1:  Ph=3 IOff=     0 NNewB=     0 IAdd=    28 IPass= 1 DotMx2= 1.27D-04
 OrtVc1:  Ph=3 IOff=     0 NNewB=     0 IAdd=    28 IPass= 2 DotMx2= 4.16D-17
 OrtVc1:  IOff=     0 IS=     1 I=    28 K1=T IndO=    28 NNew1=    28 Dot= 1.00D+00 DotN= 1.00D+00 ElMax1= 3.79D-01 ElMax1N= 3.79D-01
 OrtVc1:  Ph=3 IOff=     0 NNewB=     0 IAdd=    29 IPass= 1 DotMx2= 1.35D-04
 OrtVc1:  Ph=3 IOff=     0 NNewB=     0 IAdd=    29 IPass= 2 DotMx2= 3.23D-17
 OrtVc1:  IOff=     0 IS=     1 I=    29 K1=T IndO=    29 NNew1=    29 Dot= 1.00D+00 DotN= 1.00D+00 ElMax1= 6.11D-01 ElMax1N= 6.11D-01
 OrtVc1:  Ph=3 IOff=     0 NNewB=     0 IAdd=    30 IPass= 1 DotMx2= 1.25D-04
 OrtVc1:  Ph=3 IOff=     0 NNewB=     0 IAdd=    30 IPass= 2 DotMx2= 2.48D-16
 OrtVc1:  IOff=     0 IS=     1 I=    30 K1=T IndO=    30 NNew1=    30 Dot= 1.00D+00 DotN= 1.00D+00 ElMax1= 5.72D-01 ElMax1N= 5.72D-01
 OrtVc1:  Ph=2 IOff=    30 IPass= 1 DotMx1= 1.90D-04
 OrtVc1:  Ph=2 IOff=    30 IPass= 2 DotMx1= 2.00D-16
 OrtVc1:  IOff=     0 IS=    31 I=    31 K1=T IndO=    31 NNew1=     1 Dot= 1.00D+00 DotN= 1.00D+00 ElMax1= 4.47D-01 ElMax1N= 4.47D-01
 OrtVc1:  Ph=3 IOff=     0 NNewB=    30 IAdd=    32 IPass= 1 DotMx2= 1.36D-05
 OrtVc1:  Ph=3 IOff=     0 NNewB=    30 IAdd=    32 IPass= 2 DotMx2= 2.71D-20
 OrtVc1:  IOff=     0 IS=    31 I=    32 K1=T IndO=    32 NNew1=     2 Dot= 1.00D+00 DotN= 1.00D+00 ElMax1= 4.96D-01 ElMax1N= 4.96D-01
 OrtVc1:  Ph=3 IOff=     0 NNewB=    30 IAdd=    33 IPass= 1 DotMx2= 7.64D-05
 OrtVc1:  Ph=3 IOff=     0 NNewB=    30 IAdd=    33 IPass= 2 DotMx2= 3.20D-19
 OrtVc1:  IOff=     0 IS=    31 I=    33 K1=T IndO=    33 NNew1=     3 Dot= 1.00D+00 DotN= 1.00D+00 ElMax1= 4.06D-01 ElMax1N= 4.06D-01
 OrtVc1:  Ph=3 IOff=     0 NNewB=    30 IAdd=    34 IPass= 1 DotMx2= 4.89D-05
 OrtVc1:  Ph=3 IOff=     0 NNewB=    30 IAdd=    34 IPass= 2 DotMx2= 1.28D-18
 OrtVc1:  IOff=     0 IS=    31 I=    34 K1=T IndO=    34 NNew1=     4 Dot= 1.00D+00 DotN= 1.00D+00 ElMax1= 5.93D-01 ElMax1N= 5.93D-01
 OrtVc1:  Ph=3 IOff=     0 NNewB=    30 IAdd=    35 IPass= 1 DotMx2= 6.22D-05
 OrtVc1:  Ph=3 IOff=     0 NNewB=    30 IAdd=    35 IPass= 2 DotMx2= 1.57D-16
 OrtVc1:  IOff=     0 IS=    31 I=    35 K1=T IndO=    35 NNew1=     5 Dot= 1.00D+00 DotN= 1.00D+00 ElMax1= 3.69D-01 ElMax1N= 3.69D-01
 OrtVc1:  Ph=3 IOff=     0 NNewB=    30 IAdd=    36 IPass= 1 DotMx2= 6.02D-05
 OrtVc1:  Ph=3 IOff=     0 NNewB=    30 IAdd=    36 IPass= 2 DotMx2= 1.94D-16
 OrtVc1:  IOff=     0 IS=    31 I=    36 K1=T IndO=    36 NNew1=     6 Dot= 1.00D+00 DotN= 1.00D+00 ElMax1= 3.32D-01 ElMax1N= 3.32D-01
 OrtVc1:  Ph=3 IOff=     0 NNewB=    30 IAdd=    37 IPass= 1 DotMx2= 1.68D-04
 OrtVc1:  Ph=3 IOff=     0 NNewB=    30 IAdd=    37 IPass= 2 DotMx2= 1.37D-16
 OrtVc1:  IOff=     0 IS=    31 I=    37 K1=T IndO=    37 NNew1=     7 Dot= 1.00D+00 DotN= 1.00D+00 ElMax1= 2.64D-01 ElMax1N= 2.64D-01
 OrtVc1:  Ph=3 IOff=     0 NNewB=    30 IAdd=    38 IPass= 1 DotMx2= 5.47D-05
 OrtVc1:  Ph=3 IOff=     0 NNewB=    30 IAdd=    38 IPass= 2 DotMx2= 1.56D-17
 OrtVc1:  IOff=     0 IS=    31 I=    38 K1=T IndO=    38 NNew1=     8 Dot= 1.00D+00 DotN= 1.00D+00 ElMax1= 3.14D-01 ElMax1N= 3.14D-01
 OrtVc1:  Ph=3 IOff=     0 NNewB=    30 IAdd=    39 IPass= 1 DotMx2= 7.40D-05
 OrtVc1:  Ph=3 IOff=     0 NNewB=    30 IAdd=    39 IPass= 2 DotMx2= 3.47D-17
 OrtVc1:  IOff=     0 IS=    31 I=    39 K1=T IndO=    39 NNew1=     9 Dot= 1.00D+00 DotN= 1.00D+00 ElMax1= 3.40D-01 ElMax1N= 3.40D-01
 OrtVc1:  Ph=3 IOff=     0 NNewB=    30 IAdd=    40 IPass= 1 DotMx2= 1.47D-04
 OrtVc1:  Ph=3 IOff=     0 NNewB=    30 IAdd=    40 IPass= 2 DotMx2= 1.18D-17
 OrtVc1:  IOff=     0 IS=    31 I=    40 K1=T IndO=    40 NNew1=    10 Dot= 1.00D+00 DotN= 1.00D+00 ElMax1= 3.92D-01 ElMax1N= 3.92D-01
 Root      1 not converged, maximum delta is    0.001364386771682
 Root      2 has converged.
 Root      3 has converged.
 Root      4 has converged.
 Excitation Energies [eV] at current iteration:
 Root      1 :     7.815148862108376   Change is   -0.000284302651833
 Root      2 :     9.492012419394417   Change is   -0.000011195571316
 Root      3 :     9.579352686397389   Change is   -0.000063764345773
 Root      4 :     9.812945170843072   Change is   -0.000034755223221
 OrtVec:  Test1= 1.00D+00 Test2= 1.00D-06
 OrtVec:  NIn=      1 NOld=     40 NBNew=      1 NBOld=     41
 OrtVc1:  Ph=1 IOff=     0 IPass= 1 DotMx1= 1.05D-04
 OrtVc1:  Ph=1 IOff=     0 IPass= 2 DotMx1= 6.68D-20
 OrtVc1:  Ph=2 IOff=     0 IPass= 1 DotMx1= 0.00D+00
 OrtVc1:  IOff=     0 IS=     1 I=     1 K1=T IndO=     1 NNew1=     1 Dot= 5.21D-08 DotN= 5.21D-08 ElMax1= 6.74D-05 ElMax1N= 6.74D-05
 Iteration     5 Dimension    41 NMult    41
 OrtVec:  Test1= 1.00D+00 Test2= 1.00D-06
 OrtVec:  NIn=     41 NOld=      0 NBNew=     41 NBOld=     41
 OrtVc1:  Ph=1 IOff=     0 IPass= 1 DotMx1= 0.00D+00
 OrtVc1:  Ph=2 IOff=     0 IPass= 1 DotMx1= 0.00D+00
 OrtVc1:  IOff=     0 IS=     1 I=     1 K1=T IndO=     1 NNew1=     1 Dot= 1.00D+00 DotN= 1.00D+00 ElMax1= 6.82D-01 ElMax1N= 6.82D-01
 OrtVc1:  Ph=3 IOff=     0 NNewB=     0 IAdd=     2 IPass= 1 DotMx2= 4.49D-05
 OrtVc1:  Ph=3 IOff=     0 NNewB=     0 IAdd=     2 IPass= 2 DotMx2= 1.63D-19
 OrtVc1:  IOff=     0 IS=     1 I=     2 K1=T IndO=     2 NNew1=     2 Dot= 1.00D+00 DotN= 1.00D+00 ElMax1= 6.71D-01 ElMax1N= 6.71D-01
 OrtVc1:  Ph=3 IOff=     0 NNewB=     0 IAdd=     3 IPass= 1 DotMx2= 2.99D-05
 OrtVc1:  Ph=3 IOff=     0 NNewB=     0 IAdd=     3 IPass= 2 DotMx2= 1.41D-17
 OrtVc1:  IOff=     0 IS=     1 I=     3 K1=T IndO=     3 NNew1=     3 Dot= 1.00D+00 DotN= 1.00D+00 ElMax1= 6.85D-01 ElMax1N= 6.85D-01
 OrtVc1:  Ph=3 IOff=     0 NNewB=     0 IAdd=     4 IPass= 1 DotMx2= 1.85D-05
 OrtVc1:  Ph=3 IOff=     0 NNewB=     0 IAdd=     4 IPass= 2 DotMx2= 9.63D-19
 OrtVc1:  IOff=     0 IS=     1 I=     4 K1=T IndO=     4 NNew1=     4 Dot= 1.00D+00 DotN= 1.00D+00 ElMax1= 7.05D-01 ElMax1N= 7.05D-01
 OrtVc1:  Ph=3 IOff=     0 NNewB=     0 IAdd=     5 IPass= 1 DotMx2= 1.26D-04
 OrtVc1:  Ph=3 IOff=     0 NNewB=     0 IAdd=     5 IPass= 2 DotMx2= 5.40D-17
 OrtVc1:  IOff=     0 IS=     1 I=     5 K1=T IndO=     5 NNew1=     5 Dot= 1.00D+00 DotN= 1.00D+00 ElMax1= 6.71D-01 ElMax1N= 6.71D-01
 OrtVc1:  Ph=3 IOff=     0 NNewB=     0 IAdd=     6 IPass= 1 DotMx2= 2.62D-05
 OrtVc1:  Ph=3 IOff=     0 NNewB=     0 IAdd=     6 IPass= 2 DotMx2= 3.24D-17
 OrtVc1:  IOff=     0 IS=     1 I=     6 K1=T IndO=     6 NNew1=     6 Dot= 1.00D+00 DotN= 1.00D+00 ElMax1= 6.95D-01 ElMax1N= 6.95D-01
 OrtVc1:  Ph=3 IOff=     0 NNewB=     0 IAdd=     7 IPass= 1 DotMx2= 1.13D-04
 OrtVc1:  Ph=3 IOff=     0 NNewB=     0 IAdd=     7 IPass= 2 DotMx2= 5.42D-20
 OrtVc1:  IOff=     0 IS=     1 I=     7 K1=T IndO=     7 NNew1=     7 Dot= 1.00D+00 DotN= 1.00D+00 ElMax1= 6.94D-01 ElMax1N= 6.94D-01
 OrtVc1:  Ph=3 IOff=     0 NNewB=     0 IAdd=     8 IPass= 1 DotMx2= 4.45D-05
 OrtVc1:  Ph=3 IOff=     0 NNewB=     0 IAdd=     8 IPass= 2 DotMx2= 5.55D-17
 OrtVc1:  IOff=     0 IS=     1 I=     8 K1=T IndO=     8 NNew1=     8 Dot= 1.00D+00 DotN= 1.00D+00 ElMax1= 6.94D-01 ElMax1N= 6.94D-01
 OrtVc1:  Ph=3 IOff=     0 NNewB=     0 IAdd=     9 IPass= 1 DotMx2= 1.28D-05
 OrtVc1:  Ph=3 IOff=     0 NNewB=     0 IAdd=     9 IPass= 2 DotMx2= 2.75D-17
 OrtVc1:  IOff=     0 IS=     1 I=     9 K1=T IndO=     9 NNew1=     9 Dot= 1.00D+00 DotN= 1.00D+00 ElMax1= 6.80D-01 ElMax1N= 6.80D-01
 OrtVc1:  Ph=3 IOff=     0 NNewB=     0 IAdd=    10 IPass= 1 DotMx2= 7.72D-05
 OrtVc1:  Ph=3 IOff=     0 NNewB=     0 IAdd=    10 IPass= 2 DotMx2= 9.61D-18
 OrtVc1:  IOff=     0 IS=     1 I=    10 K1=T IndO=    10 NNew1=    10 Dot= 1.00D+00 DotN= 1.00D+00 ElMax1= 6.94D-01 ElMax1N= 6.94D-01
 OrtVc1:  Ph=3 IOff=     0 NNewB=     0 IAdd=    11 IPass= 1 DotMx2= 1.22D-04
 OrtVc1:  Ph=3 IOff=     0 NNewB=     0 IAdd=    11 IPass= 2 DotMx2= 5.17D-18
 OrtVc1:  IOff=     0 IS=     1 I=    11 K1=T IndO=    11 NNew1=    11 Dot= 1.00D+00 DotN= 1.00D+00 ElMax1= 6.36D-01 ElMax1N= 6.36D-01
 OrtVc1:  Ph=3 IOff=     0 NNewB=     0 IAdd=    12 IPass= 1 DotMx2= 1.18D-04
 OrtVc1:  Ph=3 IOff=     0 NNewB=     0 IAdd=    12 IPass= 2 DotMx2= 4.29D-17
 OrtVc1:  IOff=     0 IS=     1 I=    12 K1=T IndO=    12 NNew1=    12 Dot= 1.00D+00 DotN= 1.00D+00 ElMax1= 6.83D-01 ElMax1N= 6.83D-01
 OrtVc1:  Ph=3 IOff=     0 NNewB=     0 IAdd=    13 IPass= 1 DotMx2= 1.10D-04
 OrtVc1:  Ph=3 IOff=     0 NNewB=     0 IAdd=    13 IPass= 2 DotMx2= 2.59D-19
 OrtVc1:  IOff=     0 IS=     1 I=    13 K1=T IndO=    13 NNew1=    13 Dot= 1.00D+00 DotN= 1.00D+00 ElMax1= 6.99D-01 ElMax1N= 6.99D-01
 OrtVc1:  Ph=3 IOff=     0 NNewB=     0 IAdd=    14 IPass= 1 DotMx2= 9.91D-05
 OrtVc1:  Ph=3 IOff=     0 NNewB=     0 IAdd=    14 IPass= 2 DotMx2= 1.48D-16
 OrtVc1:  IOff=     0 IS=     1 I=    14 K1=T IndO=    14 NNew1=    14 Dot= 1.00D+00 DotN= 1.00D+00 ElMax1= 6.62D-01 ElMax1N= 6.62D-01
 OrtVc1:  Ph=3 IOff=     0 NNewB=     0 IAdd=    15 IPass= 1 DotMx2= 1.13D-04
 OrtVc1:  Ph=3 IOff=     0 NNewB=     0 IAdd=    15 IPass= 2 DotMx2= 2.55D-17
 OrtVc1:  IOff=     0 IS=     1 I=    15 K1=T IndO=    15 NNew1=    15 Dot= 1.00D+00 DotN= 1.00D+00 ElMax1= 6.78D-01 ElMax1N= 6.78D-01
 OrtVc1:  Ph=3 IOff=     0 NNewB=     0 IAdd=    16 IPass= 1 DotMx2= 7.35D-05
 OrtVc1:  Ph=3 IOff=     0 NNewB=     0 IAdd=    16 IPass= 2 DotMx2= 1.39D-17
 OrtVc1:  IOff=     0 IS=     1 I=    16 K1=T IndO=    16 NNew1=    16 Dot= 1.00D+00 DotN= 1.00D+00 ElMax1= 6.75D-01 ElMax1N= 6.75D-01
 OrtVc1:  Ph=3 IOff=     0 NNewB=     0 IAdd=    17 IPass= 1 DotMx2= 1.94D-04
 OrtVc1:  Ph=3 IOff=     0 NNewB=     0 IAdd=    17 IPass= 2 DotMx2= 5.13D-17
 OrtVc1:  IOff=     0 IS=     1 I=    17 K1=T IndO=    17 NNew1=    17 Dot= 1.00D+00 DotN= 1.00D+00 ElMax1= 6.58D-01 ElMax1N= 6.58D-01
 OrtVc1:  Ph=3 IOff=     0 NNewB=     0 IAdd=    18 IPass= 1 DotMx2= 6.51D-05
 OrtVc1:  Ph=3 IOff=     0 NNewB=     0 IAdd=    18 IPass= 2 DotMx2= 6.27D-17
 OrtVc1:  IOff=     0 IS=     1 I=    18 K1=T IndO=    18 NNew1=    18 Dot= 1.00D+00 DotN= 1.00D+00 ElMax1= 4.82D-01 ElMax1N= 4.82D-01
 OrtVc1:  Ph=3 IOff=     0 NNewB=     0 IAdd=    19 IPass= 1 DotMx2= 1.16D-04
 OrtVc1:  Ph=3 IOff=     0 NNewB=     0 IAdd=    19 IPass= 2 DotMx2= 6.99D-17
 OrtVc1:  IOff=     0 IS=     1 I=    19 K1=T IndO=    19 NNew1=    19 Dot= 1.00D+00 DotN= 1.00D+00 ElMax1= 5.68D-01 ElMax1N= 5.68D-01
 OrtVc1:  Ph=3 IOff=     0 NNewB=     0 IAdd=    20 IPass= 1 DotMx2= 1.46D-04
 OrtVc1:  Ph=3 IOff=     0 NNewB=     0 IAdd=    20 IPass= 2 DotMx2= 7.41D-17
 OrtVc1:  IOff=     0 IS=     1 I=    20 K1=T IndO=    20 NNew1=    20 Dot= 1.00D+00 DotN= 1.00D+00 ElMax1= 5.96D-01 ElMax1N= 5.96D-01
 OrtVc1:  Ph=3 IOff=     0 NNewB=     0 IAdd=    21 IPass= 1 DotMx2= 1.77D-04
 OrtVc1:  Ph=3 IOff=     0 NNewB=     0 IAdd=    21 IPass= 2 DotMx2= 3.13D-16
 OrtVc1:  IOff=     0 IS=     1 I=    21 K1=T IndO=    21 NNew1=    21 Dot= 1.00D+00 DotN= 1.00D+00 ElMax1= 5.44D-01 ElMax1N= 5.44D-01
 OrtVc1:  Ph=3 IOff=     0 NNewB=     0 IAdd=    22 IPass= 1 DotMx2= 1.40D-04
 OrtVc1:  Ph=3 IOff=     0 NNewB=     0 IAdd=    22 IPass= 2 DotMx2= 3.64D-17
 OrtVc1:  IOff=     0 IS=     1 I=    22 K1=T IndO=    22 NNew1=    22 Dot= 1.00D+00 DotN= 1.00D+00 ElMax1= 6.75D-01 ElMax1N= 6.75D-01
 OrtVc1:  Ph=3 IOff=     0 NNewB=     0 IAdd=    23 IPass= 1 DotMx2= 2.04D-04
 OrtVc1:  Ph=3 IOff=     0 NNewB=     0 IAdd=    23 IPass= 2 DotMx2= 1.08D-16
 OrtVc1:  IOff=     0 IS=     1 I=    23 K1=T IndO=    23 NNew1=    23 Dot= 1.00D+00 DotN= 1.00D+00 ElMax1= 4.40D-01 ElMax1N= 4.40D-01
 OrtVc1:  Ph=3 IOff=     0 NNewB=     0 IAdd=    24 IPass= 1 DotMx2= 1.53D-04
 OrtVc1:  Ph=3 IOff=     0 NNewB=     0 IAdd=    24 IPass= 2 DotMx2= 6.94D-17
 OrtVc1:  IOff=     0 IS=     1 I=    24 K1=T IndO=    24 NNew1=    24 Dot= 1.00D+00 DotN= 1.00D+00 ElMax1= 6.10D-01 ElMax1N= 6.10D-01
 OrtVc1:  Ph=3 IOff=     0 NNewB=     0 IAdd=    25 IPass= 1 DotMx2= 1.73D-04
 OrtVc1:  Ph=3 IOff=     0 NNewB=     0 IAdd=    25 IPass= 2 DotMx2= 1.63D-16
 OrtVc1:  IOff=     0 IS=     1 I=    25 K1=T IndO=    25 NNew1=    25 Dot= 1.00D+00 DotN= 1.00D+00 ElMax1= 3.85D-01 ElMax1N= 3.85D-01
 OrtVc1:  Ph=3 IOff=     0 NNewB=     0 IAdd=    26 IPass= 1 DotMx2= 1.87D-04
 OrtVc1:  Ph=3 IOff=     0 NNewB=     0 IAdd=    26 IPass= 2 DotMx2= 5.26D-17
 OrtVc1:  IOff=     0 IS=     1 I=    26 K1=T IndO=    26 NNew1=    26 Dot= 1.00D+00 DotN= 1.00D+00 ElMax1= 4.93D-01 ElMax1N= 4.93D-01
 OrtVc1:  Ph=3 IOff=     0 NNewB=     0 IAdd=    27 IPass= 1 DotMx2= 1.23D-04
 OrtVc1:  Ph=3 IOff=     0 NNewB=     0 IAdd=    27 IPass= 2 DotMx2= 4.54D-17
 OrtVc1:  IOff=     0 IS=     1 I=    27 K1=T IndO=    27 NNew1=    27 Dot= 1.00D+00 DotN= 1.00D+00 ElMax1= 3.62D-01 ElMax1N= 3.62D-01
 OrtVc1:  Ph=3 IOff=     0 NNewB=     0 IAdd=    28 IPass= 1 DotMx2= 1.78D-04
 OrtVc1:  Ph=3 IOff=     0 NNewB=     0 IAdd=    28 IPass= 2 DotMx2= 6.75D-17
 OrtVc1:  IOff=     0 IS=     1 I=    28 K1=T IndO=    28 NNew1=    28 Dot= 1.00D+00 DotN= 1.00D+00 ElMax1= 4.22D-01 ElMax1N= 4.22D-01
 OrtVc1:  Ph=3 IOff=     0 NNewB=     0 IAdd=    29 IPass= 1 DotMx2= 1.27D-04
[...]
      3   0.227074D+02  0.705026D-01  0.396783D+02
   Rm(velocity) tensor for State=          3
                 1             2             3 
      1  -0.301766D+02 -0.645735D-01 -0.527300D+02
      2  -0.561604D-02  0.647773D-01 -0.979233D-02
      3   0.173067D+02  0.369545D-01  0.302414D+02
   Rq(velocity) tensor for State=          3
                 1             2             3 
      1  -0.942428D+01 -0.674380D-01 -0.164678D+02
      2   0.920506D-03 -0.126423D-01  0.160437D-02
      3   0.540061D+01  0.335481D-01  0.943692D+01
 Total R(velocity) tensor for State=          4
                 1             2             3 
      1   0.884327D+00  0.657412D-03  0.189153D+00
      2   0.140958D+00 -0.249486D-04 -0.599057D-01
      3   0.754314D+00 -0.810499D-03 -0.790502D+00
   Rm(velocity) tensor for State=          4
                 1             2             3 
      1   0.482750D-01  0.245600D-04  0.246271D-02
      2  -0.315875D+01 -0.952602D-02 -0.565804D+01
      3   0.455059D-02  0.812892D-04  0.550512D-01
   Rq(velocity) tensor for State=          4
                 1             2             3 
      1   0.836052D+00  0.632852D-03  0.186691D+00
      2   0.329970D+01  0.950107D-02  0.559813D+01
      3   0.749764D+00 -0.891789D-03 -0.845553D+00
 1/2[<0|r|b>*<b|rxdel|0> + (<0|rxdel|b>*<b|r|0>)*]
 Rotatory Strengths (R) in cgs (10**-40 erg-esu-cm/Gauss)
       state          XX          YY          ZZ     R(length)
         1      -747.6750     -0.0010    748.2303      0.1848
         2       -33.8126     -0.0011     32.1669     -0.5489
         3       103.1435      0.0000   -102.7701      0.1245
         4         0.0016      0.0333     -0.0056      0.0098
  1/2[<0|del|b>*<b|r|0> + (<0|r|b>*<b|del|0>)*] (Au)
       state          X           Y           Z        Dip. S.   Osc.(frdel)
         1        -0.2780      0.0000     -0.0907      0.3687      0.2458
         2        -0.0006      0.0000     -0.0017      0.0023      0.0015
         3        -0.0086      0.0000     -0.0028      0.0115      0.0076
         4         0.0000     -0.0043      0.0000      0.0043      0.0028

 Excitation energies and oscillator strengths:
 
 Excited state symmetry could not be determined.
 Excited State   1:      Singlet-?Sym    7.8151 eV  158.65 nm  f=0.5563  <S**2>=0.000
       6 -> 14        -0.10241
       8 ->  9         0.68191
 This state for optimization and/or second-order correction.
 Total Energy, E(CIS) =  -77.7330513380    
 Copying the excited state density for this state as the 1-particle RhoCI density.
    CIS Density (Total): 
                1             2             3             4             5 
      1  0.206017D+01
      2 -0.968813D-01  0.298108D+00
      3  0.120750D-02  0.931693D-03  0.399587D+00
      4  0.518827D-02 -0.129279D-01 -0.260811D-01  0.279273D+00
      5 -0.709080D-03 -0.467163D-03  0.864559D-03  0.150480D-01  0.400650D+00
      6 -0.158558D+00  0.268798D+00 -0.561621D-02 -0.466913D-01  0.320594D-02
      7  0.486727D-02 -0.913813D-02  0.181004D+00 -0.336350D-02  0.850409D-02
      8  0.119056D-01 -0.281798D-01 -0.121273D-01  0.354467D+00  0.666074D-02
      9 -0.278828D-02  0.525073D-02  0.855272D-02  0.169992D-02  0.191044D+00
     10 -0.882117D-02  0.105757D-01 -0.985945D-02  0.545480D-03 -0.225378D-01
     11  0.171901D-02 -0.130642D-01  0.264586D-02  0.899120D-03 -0.149405D-02
     12 -0.103051D-01  0.130220D-01 -0.198766D-02  0.140890D-02  0.292747D-01
     13  0.818488D-03 -0.163818D-02  0.267779D-02  0.127061D-02  0.177612D-02
     14 -0.143999D-02  0.234778D-02 -0.242868D-01  0.801988D-03 -0.535094D-02
     15 -0.491155D-03  0.987860D-03  0.178632D-02 -0.716254D-03  0.489909D-02
     16 -0.593317D-01  0.113231D+00 -0.284810D-02  0.229785D-01  0.253974D+00
     17 -0.141928D-01  0.323256D-01  0.215593D-02  0.239691D-01  0.182476D+00
     18  0.161911D-01 -0.314510D-01 -0.634192D-01 -0.101886D-02  0.361958D-01
     19 -0.314478D-01  0.551977D-01  0.123432D+00  0.522015D-02 -0.704448D-01
     20  0.634098D-01 -0.123415D+00 -0.197933D+00  0.109987D-01  0.120448D+00
     21 -0.102938D-02  0.520193D-02 -0.110011D-01  0.140924D-01  0.616017D-02
     22 -0.362160D-01  0.704915D-01  0.120564D+00 -0.618722D-02 -0.557337D-01
     23 -0.361465D-02  0.164829D-01  0.808323D-01  0.292690D-01 -0.460955D-01
     24  0.136146D-01 -0.304584D-01 -0.740961D-01  0.621715D-02  0.217214D-01
     25 -0.645739D-02  0.174445D-01 -0.373722D-02 -0.100875D+00  0.211918D-02
     26 -0.776179D-02  0.173513D-01  0.217931D-01 -0.322230D-02 -0.484112D-01
     27 -0.418027D-02  0.657306D-02  0.227108D-02 -0.861034D-03 -0.114043D-01
     28  0.858231D-03 -0.161385D-02 -0.361582D-02 -0.849571D-03  0.206267D-02
     29  0.127603D-02 -0.397211D-02 -0.148599D-03  0.123034D-02  0.101961D-01
     30 -0.229643D-03  0.416201D-03  0.600661D-04 -0.141209D-01 -0.113613D-03
     31  0.534542D-02 -0.103425D-01 -0.138777D-01  0.209224D-02  0.103178D-02
     32  0.139003D-03 -0.257552D-03 -0.138772D-03  0.807292D-02 -0.792156D-04
     33 -0.593071D-01  0.113172D+00 -0.220069D+00  0.224422D-01 -0.126803D+00
     34 -0.141774D-01  0.322796D-01 -0.156076D+00  0.237974D-01 -0.947751D-01
     35  0.109008D-01 -0.240600D-01 -0.230879D-01  0.173230D-02  0.280513D-01
     36  0.122720D-01 -0.267190D-01 -0.407790D-01 -0.951322D-02  0.454065D-01
     37  0.108944D-01 -0.240366D-01 -0.358758D-01  0.170910D-02  0.560817D-02
     38  0.122559D-01 -0.266898D-01 -0.598245D-01 -0.980336D-02  0.120498D-01
                6             7             8             9            10 
      6  0.290567D+00
      7  0.148093D-01  0.105560D+00
      8 -0.775402D-01  0.958656D-02  0.502862D+00
      9 -0.839271D-02 -0.489638D-03 -0.599927D-02  0.104957D+00
     10  0.733481D-02 -0.699454D-02  0.652681D-03 -0.101119D-01  0.241509D-02
     11 -0.111328D-01  0.206799D-02  0.209388D-02 -0.117236D-02 -0.465261D-03
     12  0.128485D-01  0.154630D-04  0.134688D-03  0.140763D-01 -0.152522D-02
     13 -0.695185D-03  0.101079D-02 -0.430789D-02  0.110626D-02 -0.246165D-03
     14  0.533309D-02 -0.918721D-02 -0.460942D-03 -0.437986D-02  0.104128D-02
     15  0.450115D-03  0.111236D-02  0.245830D-02  0.236707D-02 -0.253666D-03
     16  0.106689D+00  0.511976D-02  0.191648D-01  0.122250D+00 -0.106551D-01
     17  0.413801D-01  0.174042D-01  0.311172D-01  0.823375D-01 -0.994266D-02
     18 -0.360651D-02 -0.136076D-01 -0.644578D-02  0.777297D-02 -0.418696D-02
     19  0.164361D-01  0.304136D-01  0.174843D-01 -0.173960D-01  0.659571D-02
     20 -0.807911D-01 -0.740958D-01  0.380845D-02  0.217257D-01 -0.229439D-02
     21  0.294425D-01 -0.614632D-02 -0.100862D+00  0.345775D-02 -0.897171D-03
     22  0.461205D-01  0.218097D-01 -0.193901D-02 -0.484354D-01  0.114225D-01
     23 -0.558193D-01 -0.904400D-02  0.580739D-01  0.511481D-02  0.658124D-02
     24  0.898922D-02 -0.980758D-02  0.110574D-01 -0.143151D-01  0.685607D-03
     25  0.583678D-01 -0.107387D-01 -0.282906D+00  0.633268D-02 -0.103281D-02
     26 -0.525089D-02 -0.142500D-01 -0.552622D-02 -0.266887D-01  0.843900D-02
     27  0.653527D-02 -0.710609D-03 -0.971558D-03 -0.841397D-02  0.131208D-02
     28 -0.897689D-03 -0.119411D-02 -0.172106D-02  0.680914D-03 -0.214480D-03
     29 -0.428663D-02  0.143558D-02  0.115483D-02  0.800142D-02 -0.100474D-02
     30  0.177770D-02 -0.807934D-03 -0.177701D-01  0.166825D-03  0.837180D-04
     31 -0.106431D-01 -0.795745D-02  0.213698D-02 -0.147942D-02  0.357983D-03
     32 -0.103966D-02  0.145199D-03  0.101588D-01 -0.620456D-03  0.147596D-03
     33  0.106730D+00 -0.102668D+00  0.189509D-01 -0.666669D-01  0.168889D-01
     34  0.412908D-01 -0.621221D-01  0.313396D-01 -0.569490D-01  0.976249D-02
     35 -0.262344D-01 -0.235331D-02 -0.560331D-02  0.343716D-01 -0.584973D-02
     36 -0.325743D-01 -0.177618D-01 -0.239474D-01  0.357071D-01 -0.574502D-02
     37 -0.261425D-01 -0.307544D-01 -0.574651D-02 -0.154618D-01  0.623311D-02
     38 -0.324803D-01 -0.397936D-01 -0.244695D-01 -0.277197D-02  0.471565D-02
               11            12            13            14            15 
     11  0.625777D-03
     12 -0.675317D-03  0.312922D-02
     13  0.557469D-04  0.574006D-04  0.769349D-03
     14 -0.206142D-03 -0.340561D-03 -0.146867D-03  0.197939D-02
     15 -0.343511D-04  0.366795D-03 -0.386495D-03 -0.182955D-03  0.315455D-03
     16 -0.573668D-02  0.242097D-01  0.318503D-03 -0.223645D-02  0.365518D-02
     17 -0.165900D-02  0.153889D-01  0.528804D-04 -0.122771D-02  0.301585D-02
     18  0.858399D-03  0.128208D-02  0.233861D-03  0.534011D-02 -0.127111D-03
     19 -0.161401D-02 -0.399237D-02 -0.429429D-03 -0.103263D-01  0.228528D-03
     20  0.361448D-02  0.172800D-03  0.647641D-04  0.138572D-01 -0.110363D-03
     21 -0.853456D-03  0.126182D-02  0.141271D-01  0.206699D-02 -0.805970D-02
     22 -0.206372D-02 -0.102110D-01 -0.132907D-03 -0.102605D-02 -0.874825D-04
     23 -0.901092D-03 -0.432677D-02 -0.178586D-02 -0.106068D-01  0.998840D-03
     24  0.119427D-02 -0.141217D-02 -0.810330D-03  0.793129D-02  0.166797D-03
     25 -0.172753D-02  0.120752D-02  0.177790D-01  0.209738D-02 -0.101433D-01
     26 -0.681412D-03 -0.802145D-02  0.132125D-03  0.147383D-02 -0.618266D-03
     27 -0.214669D-03 -0.100184D-02 -0.805657D-04  0.358770D-03 -0.149530D-03
     28  0.266056D-04  0.113523D-03  0.494900D-04  0.321490D-03 -0.276148D-04
     29  0.113781D-03  0.102843D-02  0.116249D-03 -0.637964D-03  0.129102D-03
     30 -0.492039D-04 -0.119738D-03 -0.101190D-03  0.260917D-04  0.530502D-04
     31  0.321452D-03 -0.634860D-03 -0.242756D-04  0.814608D-03 -0.119715D-03
     32  0.288559D-04 -0.127090D-03  0.536696D-04  0.117724D-03 -0.381993D-04
     33 -0.574990D-02 -0.331841D-02 -0.290414D-02  0.165592D-01 -0.210568D-02
     34 -0.166144D-02 -0.430554D-02 -0.253132D-02  0.122449D-01 -0.156426D-02
     35  0.531656D-03  0.634359D-02  0.100389D-02 -0.402600D-02 -0.746732D-04
     36  0.352816D-03  0.642112D-02  0.126017D-02 -0.191540D-02 -0.557912D-04
     37  0.530886D-03 -0.573960D-02  0.603426D-03  0.422354D-02 -0.843305D-03
     38  0.357025D-03 -0.404574D-02  0.726221D-03  0.523760D-02 -0.107209D-02
               16            17            18            19            20 
     16  0.209106D+00
     17  0.138096D+00  0.114304D+00
     18  0.108940D-01  0.122599D-01  0.206017D+01
     19 -0.240311D-01 -0.266861D-01 -0.968825D-01  0.298129D+00
     20  0.230840D-01  0.407907D-01 -0.122103D-02 -0.890788D-03  0.399558D+00
     21  0.165762D-02 -0.967575D-02  0.518178D-02 -0.129465D-01  0.262491D-01
     22 -0.280598D-01 -0.453742D-01  0.688674D-03  0.536241D-03  0.835122D-03
     23 -0.261446D-01 -0.325629D-01 -0.158543D+00  0.268785D+00  0.566720D-02
     24  0.233105D-02  0.178430D-01 -0.487848D-02  0.915632D-02  0.180990D+00
     25 -0.575062D-02 -0.241771D-01  0.118839D-01 -0.281904D-01  0.119068D-01
     26 -0.343335D-01 -0.356521D-01  0.275405D-02 -0.515181D-02  0.849752D-02
     27 -0.584913D-02 -0.575215D-02 -0.882844D-02  0.106054D-01  0.985437D-02
     28  0.530031D-03  0.355571D-03  0.171957D-02 -0.130651D-01 -0.262853D-02
     29  0.634489D-02  0.642482D-02 -0.102995D-01  0.129966D-01  0.196603D-02
     30 -0.102804D-02 -0.128104D-02 -0.839613D-03  0.168237D-02  0.275988D-02
     31 -0.401097D-02 -0.189495D-02 -0.144586D-02  0.236925D-02  0.242645D-01
     32  0.900624D-04  0.771330D-04  0.447191D-03 -0.890756D-03  0.183074D-02
     33 -0.342907D-01 -0.452771D-01  0.108974D-01 -0.240485D-01  0.358682D-01
     34 -0.452784D-01 -0.395593D-01  0.122619D-01 -0.267132D-01  0.598035D-01
     35  0.210924D-01  0.293603D-01 -0.593222D-01  0.113205D+00  0.266236D-02
     36  0.293666D-01  0.378964D-01 -0.141959D-01  0.323259D-01 -0.225088D-02
     37 -0.167902D-01 -0.137688D-01 -0.593202D-01  0.113196D+00  0.220115D+00
     38 -0.137882D-01 -0.172875D-01 -0.141930D-01  0.323223D-01  0.156025D+00
               21            22            23            24            25 
     21  0.279266D+00
     22 -0.146977D-01  0.400686D+00
     23 -0.465113D-01 -0.316084D-02  0.290416D+00
     24  0.315612D-02  0.852886D-02 -0.147344D-01  0.105567D+00
     25  0.354486D+00 -0.713638D-02 -0.772246D-01 -0.101188D-01  0.502923D+00
     26 -0.222476D-02  0.191075D+00  0.860283D-02 -0.479605D-03  0.474042D-02
     27  0.603267D-03  0.225368D-01  0.738136D-02  0.697065D-02  0.644003D-03
     28  0.895730D-03  0.152651D-02 -0.111305D-01 -0.205774D-02  0.208660D-02
     29  0.134104D-02 -0.293178D-01  0.128100D-01 -0.113345D-04  0.133752D-03
     30 -0.126292D-02  0.183241D-02  0.749493D-03  0.104004D-02  0.430613D-02
     31  0.840830D-03  0.531051D-02  0.536212D-02  0.916083D-02 -0.464401D-03
     32  0.732575D-03  0.478460D-02 -0.356874D-03  0.113024D-02 -0.246228D-02
     33  0.176249D-02 -0.561593D-02 -0.262070D-01  0.307855D-01 -0.564967D-02
     34 -0.980723D-02 -0.120119D-01 -0.324980D-01  0.398132D-01 -0.245027D-01
     35  0.221856D-01 -0.254010D+00  0.106758D+00 -0.523590D-02  0.187448D-01
     36  0.233435D-01 -0.182575D+00  0.413970D-01 -0.174201D-01  0.307063D-01
     37  0.231088D-01  0.126626D+00  0.106701D+00  0.102678D+00  0.192775D-01
     38  0.242220D-01  0.946076D-01  0.413942D-01  0.620773D-01  0.314806D-01
               26            27            28            29            30 
     26  0.104940D+00
     27  0.101213D-01  0.241104D-02
     28  0.118491D-02 -0.464229D-03  0.625671D-03
     29 -0.141136D-01 -0.152323D-02 -0.676612D-03  0.312947D-02
     30  0.112029D-02  0.251260D-03 -0.580135D-04 -0.581431D-04  0.771053D-03
     31  0.436544D-02  0.104187D-02 -0.205572D-03 -0.342017D-03  0.151781D-03
     32  0.232630D-02  0.251847D-03  0.298536D-04 -0.354927D-03 -0.385539D-03
     33  0.154618D-01  0.624297D-02  0.532420D-03 -0.575173D-02 -0.583731D-03
     34  0.286641D-02  0.472820D-02  0.351924D-03 -0.405598D-02 -0.709507D-03
     35 -0.122307D+00 -0.106573D-01 -0.575614D-02  0.242298D-01 -0.337051D-03
     36 -0.824802D-01 -0.995563D-02 -0.167051D-02  0.154154D-01 -0.758172D-04
     37  0.665472D-01  0.168943D-01 -0.573261D-02 -0.334161D-02  0.298344D-02
     38  0.568149D-01  0.977463D-02 -0.165910D-02 -0.432765D-02  0.257829D-02
               31            32            33            34            35 
     31  0.198267D-02
     32  0.185072D-03  0.313065D-03
     33  0.421710D-02  0.829559D-03  0.209070D+00
     34  0.522823D-02  0.106679D-02  0.138157D+00  0.114453D+00
     35 -0.220598D-02 -0.354574D-02 -0.168121D-01 -0.138160D-01  0.209085D+00
     36 -0.118552D-02 -0.295073D-02 -0.138026D-01 -0.172665D-01  0.138127D+00
     37  0.165380D-01  0.213075D-02  0.210843D-01  0.293536D-01 -0.342942D-01
     38  0.122106D-01  0.156998D-02  0.293441D-01  0.378382D-01 -0.452594D-01
               36            37            38 
     36  0.114316D+00
     37 -0.452648D-01  0.209078D+00
     38 -0.395806D-01  0.138118D+00  0.114324D+00
 
 Excited state symmetry could not be determined.
 Excited State   2:      Singlet-?Sym    9.4920 eV  130.62 nm  f=0.0017  <S**2>=0.000
       7 ->  9         0.67087
       8 -> 11        -0.20884
 
 Excited state symmetry could not be determined.
 Excited State   3:      Singlet-?Sym    9.5794 eV  129.43 nm  f=0.0130  <S**2>=0.000
       6 ->  9         0.68509
       8 -> 12        -0.10443
 
 Excited state symmetry could not be determined.
 Excited State   4:      Singlet-?Sym    9.8129 eV  126.35 nm  f=0.0008  <S**2>=0.000
       8 -> 10         0.70472
 SavETr:  write IOETrn=   770 NScale= 10 NData=  16 NLR=1 LETran=      82.
 Leave Link  914 at Sun Oct 21 14:50:24 2012, MaxMem=  209715200 cpu:       0.3
 (Enter /usr/local/gaussian-2009-B.01/g09/l601.exe)
 Copying SCF densities to generalized density rwf, IOpCl= 0 IROHF=0.

 **********************************************************************

            Population analysis using the SCF density.

 **********************************************************************

 Alpha  occ. eigenvalues --  -11.23768 -11.23651  -1.00935  -0.79903  -0.63454
 Alpha  occ. eigenvalues --   -0.56884  -0.51717  -0.35412
 Alpha virt. eigenvalues --    0.15962   0.26502   0.29886   0.30738   0.38736
 Alpha virt. eigenvalues --    0.47275   0.68916   0.74837   0.78919   0.85504
 Alpha virt. eigenvalues --    0.88098   0.91031   1.13644   1.14628   1.20651
 Alpha virt. eigenvalues --    1.21229   1.29776   1.40963   1.72156   1.83767
 Alpha virt. eigenvalues --    2.13784   2.21452   2.32803   2.34281   2.56828
 Alpha virt. eigenvalues --    2.66110   2.98929   2.99526   4.49121   4.68182
          Condensed to atoms (all electrons):
              1          2          3          4          5          6
     1  C    5.025090   0.393323   0.624074   0.393319  -0.036458  -0.036419
     2  H    0.393323   0.490392  -0.036414  -0.028918   0.002516  -0.002387
     3  C    0.624074  -0.036414   5.025083  -0.036454   0.393333   0.393305
     4  H    0.393319  -0.028918  -0.036454   0.490505  -0.002396   0.002516
     5  H   -0.036458   0.002516   0.393333  -0.002396   0.490452  -0.028900
     6  H   -0.036419  -0.002387   0.393305   0.002516  -0.028900   0.490397
 Mulliken atomic charges:
              1
     1  C   -0.362929
     2  H    0.181487
     3  C   -0.362927
     4  H    0.181428
     5  H    0.181453
     6  H    0.181488
 Sum of Mulliken atomic charges =   0.00000
 Mulliken charges with hydrogens summed into heavy atoms:
              1
     1  C   -0.000014
     3  C    0.000014
 Sum of Mulliken charges with hydrogens summed into heavy atoms =   0.00000
 Electronic spatial extent (au):  <R**2>=            632.7985
 Charge=              0.0000 electrons
 Dipole moment (field-independent basis, Debye):
    X=             -0.0001    Y=              0.2974    Z=             -0.0005  Tot=              0.2974
 Quadrupole moment (field-independent basis, Debye-Ang):
   XX=            -12.0092   YY=            -13.8228   ZZ=            -12.1737
   XY=              0.1737   XZ=             -0.1403   YZ=             -0.0996
 Traceless Quadrupole moment (field-independent basis, Debye-Ang):
   XX=              0.6594   YY=             -1.1542   ZZ=              0.4948
   XY=              0.1737   XZ=             -0.1403   YZ=             -0.0996
 Octapole moment (field-independent basis, Debye-Ang**2):
  XXX=            -20.8289  YYY=           -133.1305  ZZZ=             12.6756  XYY=             -7.9801
  XXY=            -35.5832  XXZ=              4.0066  XZZ=             -6.9431  YZZ=            -36.2896
  YYZ=              4.8253  XYZ=             -0.5971
 Hexadecapole moment (field-independent basis, Debye-Ang**3):
 XXXX=            -80.2794 YYYY=           -836.2347 ZZZZ=            -42.3562 XXXY=            -61.8287
 XXXZ=             18.3739 YYYX=            -76.9191 YYYZ=             46.3360 ZZZX=             15.1680
 ZZZY=             37.8086 XXYY=           -124.2347 XXZZ=            -21.6147 YYZZ=           -119.6758
 XXYZ=             11.7297 YYXZ=              4.1846 ZZXY=            -20.6165
 N-N= 3.261348856892D+01 E-N=-2.462979179192D+02  KE= 7.774489189570D+01
 Leave Link  601 at Sun Oct 21 14:50:24 2012, MaxMem=  209715200 cpu:       0.0
 (Enter /usr/local/gaussian-2009-B.01/g09/l9999.exe)

 Test job not archived.
 1\1\ WCSS.WROC.PL-SUPERNOVA-WN617\SP\RCIS-FC\6-31G(d)\C2H4\BLASIAK\21-
 Oct-2012\0\\#p CIS(NStates=4,Singlets)/6-31G(d) IOP(9/33=2) nosymm\\CI
 S/6-31G(d) calculations of the transition density matrix for ethylene\
 \0,1\C,0,-0.031871,3.000007,0.001312\H,0,-0.053949,3.102551,1.069139\C
 ,0,1.188324,2.999997,-0.695389\H,0,-0.962724,3.100044,-0.523396\H,0,1.
 209504,3.099215,-1.76369\H,0,2.11924,3.102685,-0.171502\\Version=EM64L
 -G09RevB.01\HF=-78.0202527\MP2=-78.2777812\RMSD=8.642e-09\PG=C01 [X(C2
 H4)]\\@


 REALITY IS FOR PEOPLE WHO CAN'T FACE SCIENCE FICTION.
 Job cpu time:  0 days  0 hours  0 minutes  1.3 seconds.
 File lengths (MBytes):  RWF=     14 Int=      0 D2E=      0 Chk=      1 Scr=      1
 Normal termination of Gaussian 09 at Sun Oct 21 14:50:24 2012.
