 Entering Gaussian System, Link 0=/usr/local/gaussian-2009-B.01/g09/g09
 Initial command:
 /usr/local/gaussian-2009-B.01/g09/l1.exe /lustre/scratch/tmp/pbs.3067278.nova/Gau-22778.inp -scrdir=/lustre/scratch/tmp/pbs.3067278.nova/
 Entering Link 1 = /usr/local/gaussian-2009-B.01/g09/l1.exe PID=     22779.
  
 Copyright (c) 1988,1990,1992,1993,1995,1998,2003,2009,2010,
            Gaussian, Inc.  All Rights Reserved.
  
 This is part of the Gaussian(R) 09 program.  It is based on
 the Gaussian(R) 03 system (copyright 2003, Gaussian, Inc.),
 the Gaussian(R) 98 system (copyright 1998, Gaussian, Inc.),
 the Gaussian(R) 94 system (copyright 1995, Gaussian, Inc.),
 the Gaussian 92(TM) system (copyright 1992, Gaussian, Inc.),
 the Gaussian 90(TM) system (copyright 1990, Gaussian, Inc.),
 the Gaussian 88(TM) system (copyright 1988, Gaussian, Inc.),
 the Gaussian 86(TM) system (copyright 1986, Carnegie Mellon
 University), and the Gaussian 82(TM) system (copyright 1983,
 Carnegie Mellon University). Gaussian is a federally registered
 trademark of Gaussian, Inc.
  
 This software contains proprietary and confidential information,
 including trade secrets, belonging to Gaussian, Inc.
  
 This software is provided under written license and may be
 used, copied, transmitted, or stored only in accord with that
 written license.
  
 The following legend is applicable only to US Government
 contracts under FAR:
  
                    RESTRICTED RIGHTS LEGEND
  
 Use, reproduction and disclosure by the US Government is
 subject to restrictions as set forth in subparagraphs (a)
 and (c) of the Commercial Computer Software - Restricted
 Rights clause in FAR 52.227-19.
  
 Gaussian, Inc.
 340 Quinnipiac St., Bldg. 40, Wallingford CT 06492
  
  
 ---------------------------------------------------------------
 Warning -- This program may not be used in any manner that
 competes with the business of Gaussian, Inc. or will provide
 assistance to any competitor of Gaussian, Inc.  The licensee
 of this program is prohibited from giving any competitor of
 Gaussian, Inc. access to this program.  By using this program,
 the user acknowledges that Gaussian, Inc. is engaged in the
 business of creating and licensing software in the field of
 computational chemistry and represents and warrants to the
 licensee that it is not a competitor of Gaussian, Inc. and that
 it will not use this program in any manner prohibited above.
 ---------------------------------------------------------------
  

 Cite this work as:
 Gaussian 09, Revision B.01,
 M. J. Frisch, G. W. Trucks, H. B. Schlegel, G. E. Scuseria, 
 M. A. Robb, J. R. Cheeseman, G. Scalmani, V. Barone, B. Mennucci, 
 G. A. Petersson, H. Nakatsuji, M. Caricato, X. Li, H. P. Hratchian, 
 A. F. Izmaylov, J. Bloino, G. Zheng, J. L. Sonnenberg, M. Hada, 
 M. Ehara, K. Toyota, R. Fukuda, J. Hasegawa, M. Ishida, T. Nakajima, 
 Y. Honda, O. Kitao, H. Nakai, T. Vreven, J. A. Montgomery, Jr., 
 J. E. Peralta, F. Ogliaro, M. Bearpark, J. J. Heyd, E. Brothers, 
 K. N. Kudin, V. N. Staroverov, T. Keith, R. Kobayashi, J. Normand, 
 K. Raghavachari, A. Rendell, J. C. Burant, S. S. Iyengar, J. Tomasi, 
 M. Cossi, N. Rega, J. M. Millam, M. Klene, J. E. Knox, J. B. Cross, 
 V. Bakken, C. Adamo, J. Jaramillo, R. Gomperts, R. E. Stratmann, 
 O. Yazyev, A. J. Austin, R. Cammi, C. Pomelli, J. W. Ochterski, 
 R. L. Martin, K. Morokuma, V. G. Zakrzewski, G. A. Voth, 
 P. Salvador, J. J. Dannenberg, S. Dapprich, A. D. Daniels, 
 O. Farkas, J. B. Foresman, J. V. Ortiz, J. Cioslowski, 
 and D. J. Fox, Gaussian, Inc., Wallingford CT, 2010.
 
 ******************************************
 Gaussian 09:  EM64L-G09RevB.01 12-Aug-2010
                21-Oct-2012 
 ******************************************
 %nproc=1
 Will use up to    1 processors via shared memory.
 %mem=100MB
 Default route:  MAXDISK=100GB SCF=DIRECT
 ----------------------------------------------------------
 # HF/sto-3g iop(9/33=1) density=current pop=regular nosymm
 ----------------------------------------------------------
 1/30=1,38=1/1;
 2/12=2,15=1,17=6,18=5,40=1/2;
 3/6=3,11=9,16=1,25=1,30=1/1,2,3;
 4//1;
 5/5=2,38=5/2;
 6/22=-1,28=1/1;
 99/5=1,9=1/99;
 -----------------------
 density matrix printing
 -----------------------
 Symbolic Z-matrix:
 Charge =  0 Multiplicity = 1
 O                    -0.43268   1.9292   -0.163 
 H                     0.5222    2.15843  -0.09144 
 C                    -1.138     3.15073  -0.04105 
 H                    -2.21074   2.94789  -0.06514 
 H                    -0.87394   3.80831  -0.87297 
 H                    -0.88115   3.62713   0.90855 
 
                          Input orientation:                          
 ---------------------------------------------------------------------
 Center     Atomic      Atomic             Coordinates (Angstroms)
 Number     Number       Type             X           Y           Z
 ---------------------------------------------------------------------
      1          8           0       -0.432680    1.929200   -0.163000
      2          1           0        0.522200    2.158430   -0.091440
      3          6           0       -1.138000    3.150730   -0.041050
      4          1           0       -2.210740    2.947890   -0.065140
      5          1           0       -0.873940    3.808310   -0.872970
      6          1           0       -0.881150    3.627130    0.908550
 ---------------------------------------------------------------------
                    Distance matrix (angstroms):
                    1          2          3          4          5
     1  O    0.000000
     2  H    0.984613   0.000000
     3  C    1.415798   1.934803   0.000000
     4  H    2.051537   2.844802   1.092014   0.000000
     5  H    2.056653   2.298282   1.092808   1.783240   0.000000
     6  H    2.057258   2.264167   1.093009   1.782484   1.790724
                    6
     6  H    0.000000
 Symmetry turned off by external request.
 Stoichiometry    CH4O
 Framework group  C1[X(CH4O)]
 Deg. of freedom    12
 Full point group                 C1      NOp   1
 Rotational constants (GHZ):    125.2578264     25.1227951     24.1586039
 Standard basis: STO-3G (5D, 7F)
 Integral buffers will be    131072 words long.
 Raffenetti 1 integral format.
 Two-electron integral symmetry is turned off.
    14 basis functions,    42 primitive gaussians,    14 cartesian basis functions
     9 alpha electrons        9 beta electrons
       nuclear repulsion energy        40.3180521742 Hartrees.
 NAtoms=    6 NActive=    6 NUniq=    6 SFac= 1.00D+00 NAtFMM=   50 NAOKFM=F Big=F
 One-electron integrals computed using PRISM.
 NBasis=    14 RedAO= T  NBF=    14
 NBsUse=    14 1.00D-06 NBFU=    14
 Harris functional with IExCor=  205 diagonalized for initial guess.
 ExpMin= 1.69D-01 ExpMax= 1.31D+02 ExpMxC= 1.31D+02 IAcc=1 IRadAn=         1 AccDes= 0.00D+00
 HarFok:  IExCor=  205 AccDes= 0.00D+00 IRadAn=         1 IDoV= 1
 ScaDFX=  1.000000  1.000000  1.000000  1.000000
 FoFCou: FMM=F IPFlag=           0 FMFlag=      100000 FMFlg1=           0
         NFxFlg=           0 DoJE=T BraDBF=F KetDBF=T FulRan=T
         Omega=  0.000000  0.000000  1.000000  0.000000  0.000000 ICntrl=     500 IOpCl=  0
         NMat0=    1 NMatS0=    1 NMatT0=    0 NMatD0=    1 NMtDS0=    0 NMtDT0=    0
         I1Cent=           4 NGrid=           0.
 Symmetry not used in FoFCou.
 Requested convergence on RMS density matrix=1.00D-08 within 128 cycles.
 Requested convergence on MAX density matrix=1.00D-06.
 Requested convergence on             energy=1.00D-06.
 No special actions if energy rises.
 Keep R1 ints in memory in canonical form, NReq=825312.
 SCF Done:  E(RHF) =  -113.547544691     A.U. after   10 cycles
             Convg  =    0.2107D-08             -V/T =  2.0080

 **********************************************************************

            Population analysis using the SCF density.

 **********************************************************************

 Alpha  occ. eigenvalues --  -20.25542 -11.08869  -1.28196  -0.87608  -0.61248
 Alpha  occ. eigenvalues --   -0.57812  -0.52638  -0.41063  -0.35426
 Alpha virt. eigenvalues --    0.57166   0.67117   0.70395   0.72148   0.74214
     Molecular Orbital Coefficients:
                           5         6         7         8         9
                           O         O         O         O         O
     Eigenvalues --    -0.61248  -0.57812  -0.52638  -0.41063  -0.35426
   1 1   O  1S          0.04523  -0.00026   0.01490   0.08342  -0.00008
   2        2S         -0.22153   0.00131  -0.07069  -0.43715   0.00045
   3        2PX         0.45522  -0.01918  -0.30305   0.28394  -0.04066
   4        2PY         0.06414  -0.04679   0.36771   0.63806  -0.11535
   5        2PZ         0.03037   0.36730   0.03266   0.09361   0.91545
   6 2   H  1S          0.34105  -0.00191  -0.24982   0.28822  -0.00047
   7 3   C  1S         -0.00643   0.00019  -0.00923  -0.01768  -0.00005
   8        2S         -0.00069  -0.00057   0.06807   0.07474   0.00022
   9        2PX         0.22810  -0.02539   0.51641  -0.07785   0.00858
  10        2PY         0.37173  -0.06933  -0.16521  -0.32625   0.02392
  11        2PZ         0.05958   0.53178   0.00227  -0.04451  -0.18578
  12 4   H  1S         -0.20455   0.02001  -0.40990   0.22811  -0.01434
  13 5   H  1S          0.18903  -0.36567   0.03054  -0.18810   0.27037
  14 6   H  1S          0.21587   0.34465   0.05558  -0.21170  -0.25601
                          10        11        12        13        14
                           V         V         V         V         V
     Eigenvalues --     0.57166   0.67117   0.70395   0.72148   0.74214
   1 1   O  1S          0.12231   0.01554  -0.00019   0.03914   0.01566
   2        2S         -0.77901  -0.08447   0.00127  -0.25295  -0.07863
   3        2PX        -0.33465   0.47842   0.01625  -0.34933   0.65801
   4        2PY        -0.56163  -0.40062   0.02652  -0.16670  -0.30254
   5        2PZ        -0.08363  -0.03350  -0.17040  -0.04237  -0.00553
   6 2   H  1S          0.81538  -0.44700  -0.00288   0.43886  -0.46244
   7 3   C  1S         -0.02199  -0.01690   0.00261  -0.17018  -0.17928
   8        2S          0.05601   0.03891  -0.01691   1.08634   1.08455
   9        2PX         0.14530   0.97866  -0.08841   0.25655  -0.38222
  10        2PY        -0.71047  -0.20970  -0.16918   0.61663  -0.45861
  11        2PZ        -0.09305   0.04551   1.09822   0.12711  -0.09547
  12 4   H  1S         -0.10369   0.84249  -0.08121  -0.12312  -0.90297
  13 5   H  1S          0.22589  -0.12600   0.90447  -0.78365  -0.20245
  14 6   H  1S          0.25839  -0.22272  -0.79520  -0.87976  -0.12999
     Density Matrix:
                           1         2         3         4         5
   1 1   O  1S          2.10665
   2        2S         -0.44949   1.97476
   3        2PX         0.04249  -0.24910   0.81251
   4        2PY         0.09767  -0.53047   0.18455   1.17188
   5        2PZ         0.01412  -0.07748  -0.02841  -0.09326   1.96801
   6 2   H  1S         -0.02762  -0.04014   0.68352   0.22638   0.05846
   7 3   C  1S          0.00552   0.00267   0.04828  -0.09778  -0.01016
   8        2S          0.00063  -0.11262  -0.16677   0.32473   0.03349
   9        2PX        -0.01474   0.01995  -0.12863   0.31121   0.03113
  10        2PY         0.03162  -0.04387   0.22167  -0.48903  -0.05786
  11        2PZ         0.00328  -0.00455   0.01909  -0.05427   0.04579
  12 4   H  1S          0.02599  -0.13340   0.13405   0.01382  -0.00448
  13 5   H  1S          0.00471  -0.00367  -0.01848  -0.17280   0.20823
  14 6   H  1S          0.00370   0.00288  -0.00719  -0.12595  -0.23487
                           6         7         8         9        10
   6 2   H  1S          0.61244
   7 3   C  1S          0.02594   2.06668
   8        2S         -0.11575  -0.21523   0.85247
   9        2PX        -0.11419   0.00158   0.01870   0.66333
  10        2PY         0.09793  -0.00962  -0.00431   0.03493   0.58314
  11        2PZ         0.00709  -0.00103  -0.00013   0.00444  -0.00726
  12 4   H  1S          0.14346  -0.09659   0.22982  -0.57148  -0.13959
  13 5   H  1S         -0.04582  -0.09447   0.22513   0.15263   0.34557
  14 6   H  1S         -0.05593  -0.09431   0.22455   0.14927   0.24903
                          11        12        13        14
  11        2PZ         0.64595
  12 4   H  1S         -0.01697   0.60496
  13 5   H  1S         -0.44705  -0.13150   0.63591
  14 6   H  1S          0.50942  -0.13007  -0.14748   0.63622
    Full Mulliken population analysis:
                           1         2         3         4         5
   1 1   O  1S          2.10665
   2        2S         -0.10640   1.97476
   3        2PX         0.00000   0.00000   0.81251
   4        2PY         0.00000   0.00000   0.00000   1.17188
   5        2PZ         0.00000   0.00000   0.00000   0.00000   1.96801
   6 2   H  1S         -0.00140  -0.01835   0.25439   0.02023   0.00163
   7 3   C  1S          0.00000   0.00005  -0.00078  -0.00272  -0.00003
   8        2S          0.00001  -0.02943   0.02121   0.07152   0.00074
   9        2PX        -0.00028   0.00342  -0.00403   0.05677   0.00057
  10        2PY        -0.00103   0.01303   0.04043   0.08767   0.00182
  11        2PZ        -0.00001   0.00013   0.00035   0.00171   0.00611
  12 4   H  1S          0.00011  -0.00910  -0.00888   0.00052  -0.00002
  13 5   H  1S          0.00002  -0.00025   0.00030  -0.01196  -0.00544
  14 6   H  1S          0.00002   0.00019   0.00012  -0.00787  -0.00926
                           6         7         8         9        10
   6 2   H  1S          0.61244
   7 3   C  1S          0.00024   2.06668
   8        2S         -0.01663  -0.05345   0.85247
   9        2PX        -0.01722   0.00000   0.00000   0.66333
  10        2PY        -0.00883   0.00000   0.00000   0.00000   0.58314
  11        2PZ        -0.00003   0.00000   0.00000   0.00000   0.00000
  12 4   H  1S          0.00362  -0.00599   0.11252   0.26194   0.01210
  13 5   H  1S         -0.00328  -0.00584   0.11012   0.01720   0.09696
  14 6   H  1S         -0.00425  -0.00583   0.10981   0.01635   0.05061
                          11        12        13        14
  11        2PZ         0.64595
  12 4   H  1S          0.00017   0.60496
  13 5   H  1S          0.15870  -0.02215   0.63591
  14 6   H  1S          0.20635  -0.02193  -0.02455   0.63622
     Gross orbital populations:
                           1
   1 1   O  1S          1.99770
   2        2S          1.82806
   3        2PX         1.11562
   4        2PY         1.38776
   5        2PZ         1.96414
   6 2   H  1S          0.82255
   7 3   C  1S          1.99232
   8        2S          1.17888
   9        2PX         0.99805
  10        2PY         0.87591
  11        2PZ         1.01943
  12 4   H  1S          0.92787
  13 5   H  1S          0.94573
  14 6   H  1S          0.94598
          Condensed to atoms (all electrons):
              1          2          3          4          5          6
     1  O    7.821019   0.256504   0.267246  -0.017366  -0.017331  -0.016792
     2  H    0.256504   0.612439  -0.042475   0.003616  -0.003280  -0.004254
     3  C    0.267246  -0.042475   4.704656   0.380743   0.377135   0.377287
     4  H   -0.017366   0.003616   0.380743   0.604957  -0.022147  -0.021931
     5  H   -0.017331  -0.003280   0.377135  -0.022147   0.635907  -0.024551
     6  H   -0.016792  -0.004254   0.377287  -0.021931  -0.024551   0.636217
 Mulliken atomic charges:
              1
     1  O   -0.293280
     2  H    0.177450
     3  C   -0.064591
     4  H    0.072128
     5  H    0.054268
     6  H    0.054024
 Sum of Mulliken atomic charges =   0.00000
 Mulliken charges with hydrogens summed into heavy atoms:
              1
     1  O   -0.115829
     3  C    0.115829
 Sum of Mulliken charges with hydrogens summed into heavy atoms =   0.00000
 Electronic spatial extent (au):  <R**2>=            551.3071
 Charge=              0.0000 electrons
 Dipole moment (field-independent basis, Debye):
    X=              0.6489    Y=              1.3301    Z=              0.2015  Tot=              1.4936
 Quadrupole moment (field-independent basis, Debye-Ang):
   XX=            -11.0725   YY=             -6.5355   ZZ=            -12.3899
   XY=              0.5564   XZ=             -0.1344   YZ=              0.2575
 Traceless Quadrupole moment (field-independent basis, Debye-Ang):
   XX=             -1.0732   YY=              3.4638   ZZ=             -2.3906
   XY=              0.5564   XZ=             -0.1344   YZ=              0.2575
 Octapole moment (field-independent basis, Debye-Ang**2):
  XXX=             28.1918  YYY=            -81.0774  ZZZ=              3.2525  XYY=              9.6453
  XXY=            -30.0248  XXZ=              0.9075  XZZ=             10.3667  YZZ=            -32.9340
  YYZ=              1.0844  XYZ=             -0.1843
 Hexadecapole moment (field-independent basis, Debye-Ang**3):
 XXXX=            -74.7329 YYYY=           -528.1189 ZZZZ=            -16.3025 XXXY=             85.2794
 XXXZ=             -1.5084 YYYX=             86.8920 YYYZ=              5.5237 ZZZX=             -1.9050
 ZZZY=              7.5047 XXYY=           -102.6602 XXZZ=            -16.8989 YYZZ=            -96.8716
 XXYZ=              2.0400 YYXZ=             -0.7189 ZZXY=             30.6916
 N-N= 4.031805217415D+01 E-N=-3.484079198724D+02  KE= 1.126447676502D+02
 Orbital energies and kinetic energies (alpha):
                                 1                 2
   5         O                -0.612480          1.297451
   6         O                -0.578122          1.143190
   7         O                -0.526376          1.418286
   8         O                -0.410629          2.075199
   9         O                -0.354256          2.347160
  10         V                 0.571655          2.818945
  11         V                 0.671169          2.538185
  12         V                 0.703949          2.202564
  13         V                 0.721485          2.559078
  14         V                 0.742137          3.007278
 Total kinetic energy from orbitals= 1.126447676502D+02

 Test job not archived.
 1\1\ WCSS.WROC.PL-SUPERNOVA-WN630\SP\RHF\STO-3G\C1H4O1\BLASIAK\21-Oct-
 2012\0\\# HF/sto-3g iop(9/33=1) density=current pop=regular nosymm\\de
 nsity matrix printing\\0,1\O,0,-0.43268,1.9292,-0.163\H,0,0.5222,2.158
 43,-0.09144\C,0,-1.138,3.15073,-0.04105\H,0,-2.21074,2.94789,-0.06514\
 H,0,-0.87394,3.80831,-0.87297\H,0,-0.88115,3.62713,0.90855\\Version=EM
 64L-G09RevB.01\HF=-113.5475447\RMSD=2.107e-09\Dipole=0.2552996,0.52329
 49,0.0792612\Quadrupole=-0.7979014,2.5752394,-1.7773381,0.4136707,-0.0
 999596,0.1914551\PG=C01 [X(C1H4O1)]\\@


 The chemist is a guest at the physicist's table and
 frequently dines well.
                   -- Richard Bersohn
 Job cpu time:  0 days  0 hours  0 minutes  0.6 seconds.
 File lengths (MBytes):  RWF=      5 Int=      0 D2E=      0 Chk=      1 Scr=      1
 Normal termination of Gaussian 09 at Sun Oct 21 09:38:34 2012.
